----- GAMESS execution script 'rungms' -----
This job is running on host Ryzen7
under operating system Linux at 2023年 12月 26日 星期二 17:06:33 CST
Available scratch disk space (Kbyte units) at beginning of the job is
Filesystem      1K-blocks     Used  Available Use% Mounted on
/dev/sda1      1921724608 38667168 1785365384   3% /media/workdir
GAMESS temporary binary files will be written to /media/workdir/gmstmp
GAMESS supplementary output files will be written to /media/workdir/yingjin/gmstmp
Copying input file test-geom.inp to your run's scratch directory...
Please save, rename, or erase these files from a previous run:
     /media/workdir/yingjin/gmstmp/test-geom.dat,
     /media/workdir/yingjin/gmstmp/test-geom.trj,
     /media/workdir/yingjin/gmstmp/test-geom.rst, and/or
     /media/workdir/yingjin/gmstmp/test-geom.efp,
and then resubmit this computation.

 Distributed Data Interface kickoff program.
 Initiating 2 compute processes on 1 nodes to run the following command:
 /home/yingjin/Quantum_Soft/gamess-2018/gamess.01.x test-geom 

          ******************************************************
          *         GAMESS VERSION = 14 FEB 2018 (R1)         *
          *             FROM IOWA STATE UNIVERSITY             *
          * M.W.SCHMIDT, K.K.BALDRIDGE, J.A.BOATZ, S.T.ELBERT, *
          *   M.S.GORDON, J.H.JENSEN, S.KOSEKI, N.MATSUNAGA,   *
          *          K.A.NGUYEN, S.J.SU, T.L.WINDUS,           *
          *       TOGETHER WITH M.DUPUIS, J.A.MONTGOMERY       *
          *         J.COMPUT.CHEM.  14, 1347-1363(1993)        *
          **************** 64 BIT LINUX VERSION ****************

  SINCE 1993, STUDENTS AND POSTDOCS WORKING AT IOWA STATE UNIVERSITY
  AND ALSO IN THEIR VARIOUS JOBS AFTER LEAVING ISU HAVE MADE IMPORTANT
  CONTRIBUTIONS TO THE CODE:
     IVANA ADAMOVIC, CHRISTINE AIKENS, YURI ALEXEEV, POOJA ARORA,
     ANDREY ASADCHEV, ROB BELL, PRADIPTA BANDYOPADHYAY, JONATHAN BENTZ,
     BRETT BODE, KURT BRORSEN, CALEB CARLIN, GALINA CHABAN, WEI CHEN,
     CHEOL HO CHOI, PAUL DAY, ALBERT DEFUSCO, NUWAN DESILVA, TIM DUDLEY,
     DMITRI FEDOROV, ALEX FINDLATER, GRAHAM FLETCHER, MARK FREITAG,
     KURT GLAESEMANN, ANASTASIA GUININA,
     DAN KEMP, GRANT MERRILL, NORIYUKI MINEZAWA, JONATHAN MULLIN,
     TAKESHI NAGATA, SEAN NEDD, HEATHER NETZLOFF, BOSILJKA NJEGIC, RYAN OLSON,
     MIKE PAK, BUU PHAM,
     SPENCER PRUITT, LUKE ROSKOP, JIM SHOEMAKER, LYUDMILA SLIPCHENKO,
     TONY SMITH, SAROM SOK LEANG, JIE SONG, TETSUYA TAKETSUGU, SIMON WEBB,
     PENG XU, SOOHAENG YOO, FEDERICO ZAHARIEV

  ADDITIONAL CODE HAS BEEN PROVIDED BY COLLABORATORS IN OTHER GROUPS:
     IOWA STATE UNIVERSITY:
          JOE IVANIC, AARON WEST, LAIMUTIS BYTAUTAS, KLAUS RUEDENBERG
     UNIVERSITY OF TOKYO: KIMIHIKO HIRAO, TAKAHITO NAKAJIMA,
          TAKAO TSUNEDA, MUNEAKI KAMIYA, SUSUMU YANAGISAWA,
          KIYOSHI YAGI, MAHITO CHIBA, SEIKEN TOKURA, NAOAKI KAWAKAMI
     UNIVERSITY OF AARHUS: FRANK JENSEN
     UNIVERSITY OF IOWA: VISVALDAS KAIRYS, HUI LI
     NATIONAL INST. OF STANDARDS AND TECHNOLOGY: WALT STEVENS, DAVID GARMER
     UNIVERSITY OF PISA: BENEDETTA MENNUCCI, JACOPO TOMASI
     UNIVERSITY OF MEMPHIS: HENRY KURTZ, PRAKASHAN KORAMBATH
     UNIVERSITY OF ALBERTA: TOBY ZENG, MARIUSZ KLOBUKOWSKI
     UNIVERSITY OF NEW ENGLAND: MARK SPACKMAN
     MIE UNIVERSITY: HIROAKI UMEDA
     NAT. INST. OF ADVANCED INDUSTRIAL SCIENCE AND TECHNOLOGY: KAZUO KITAURA
     MICHIGAN STATE UNIVERSITY:
          KAROL KOWALSKI, MARTA WLOCH, JEFFREY GOUR, JESSE LUTZ,
          WEI LI, PIOTR PIECUCH
     UNIVERSITY OF SILESIA: MONIKA MUSIAL, STANISLAW KUCHARSKI
     FACULTES UNIVERSITAIRES NOTRE-DAME DE LA PAIX:
          OLIVIER QUINET, BENOIT CHAMPAGNE
     UNIVERSITY OF CALIFORNIA - SANTA BARBARA: BERNARD KIRTMAN
     INSTITUTE FOR MOLECULAR SCIENCE:
          KAZUYA ISHIMURA, MICHIO KATOUDA, AND SHIGERU NAGASE
     UNIVERSITY OF NOTRE DAME: ANNA POMOGAEVA, DAN CHIPMAN
     KYUSHU UNIVERSITY:
          HARUYUKI NAKANO,
          FENG LONG GU, JACEK KORCHOWIEC, MARCIN MAKOWSKI, AND YURIKO AOKI,
          HIROTOSHI MORI AND EISAKU MIYOSHI
     PENNSYLVANIA STATE UNIVERSITY:
          TZVETELIN IORDANOV, CHET SWALINA, JONATHAN SKONE,
          SHARON HAMMES-SCHIFFER
     WASEDA UNIVERSITY:
          MASATO KOBAYASHI, TOMOKO AKAMA, TSUGUKI TOUMA,
          TAKESHI YOSHIKAWA, YASUHIRO IKABATA, JUNJI SEINO,
          YUYA NAKAJIMA, HIROMI NAKAI
     NANJING UNIVERSITY: SHUHUA LI
     UNIVERSITY OF NEBRASKA:
          PEIFENG SU, DEJUN SI, NANDUN THELLAMUREGE, YALI WANG, HUI LI
     UNIVERSITY OF ZURICH: ROBERTO PEVERATI, KIM BALDRIDGE
     N. COPERNICUS UNIVERSITY AND JACKSON STATE UNIVERSITY:
          MARIA BARYSZ
     UNIVERSITY OF COPENHAGEN: Jimmy Kromann, CASPER STEINMANN
     TOKYO INSTITUTE OF TECHNOLOGY: HIROYA NAKATA
     NAGOYA UNIVERSITY: YOSHIO NISHIMOTO, STEPHAN IRLE
     MOSCOW STATE UNIVERSITY: VLADIMIR MIRONOV


 PARALLEL VERSION RUNNING ON        2 PROCESSORS IN        1 NODES.

 EXECUTION OF GAMESS BEGUN Tue Dec 26 17:06:38 2023

            ECHO OF THE FIRST FEW INPUT CARDS -
 INPUT CARD> $CONTRL SCFTYP=RHF RUNTYP=ENERGY ISPHER=1 $END                                 
 INPUT CARD> $SYSTEM timlim=1000 $END                                                       
 INPUT CARD> $BASIS  GBASIS=CCQ $END                                                        
 INPUT CARD> $DATA                                                                          
 INPUT CARD>  check the data                                                                
 INPUT CARD> C1                                                                             
 INPUT CARD> C   6    0.00000000    0.00000000   -0.13375000                                
 INPUT CARD> H   1    0.00000000    0.86110687    0.56493031                                
 INPUT CARD> H   1    0.00000000   -0.86110687    0.56493031                                
 INPUT CARD> $END                                                                           
 INPUT CARD>                                                                                
    1000000 WORDS OF MEMORY AVAILABLE

     BASIS OPTIONS
     -------------
     GBASIS=CCQ          IGAUSS=       0      POLAR=NONE    
     NDFUNC=       0     NFFUNC=       0     DIFFSP=       F
     NPFUNC=       0      DIFFS=       F     BASNAM=        


     RUN TITLE
     ---------
   check the data                                                                

 THE POINT GROUP OF THE MOLECULE IS C1      
 THE ORDER OF THE PRINCIPAL AXIS IS     0

 ATOM      ATOMIC                      COORDINATES (BOHR)
           CHARGE         X                   Y                   Z
 C           6.0     0.0000000000        0.0000000000       -0.2527508509
 H           1.0     0.0000000000        1.6272560304        1.0675634881
 H           1.0     0.0000000000       -1.6272560304        1.0675634881

          INTERNUCLEAR DISTANCES (ANGS.)
          ------------------------------

                1 C          2 H          3 H     

   1 C       0.0000000    1.1089000 *  1.1089000 *
   2 H       1.1089000 *  0.0000000    1.7222137 *
   3 H       1.1089000 *  1.7222137 *  0.0000000  

  * ... LESS THAN  3.000


     ATOMIC BASIS SET
     ----------------
 THE CONTRACTED PRIMITIVE FUNCTIONS HAVE BEEN UNNORMALIZED
 THE CONTRACTED BASIS FUNCTIONS ARE NOW NORMALIZED TO UNITY

  SHELL TYPE  PRIMITIVE        EXPONENT          CONTRACTION COEFFICIENT(S)

 C         

      1   S       1         33980.0000000    0.000091634546
      1   S       2          5089.0000000    0.000708909013
      1   S       3          1157.0000000    0.003718751399
      1   S       4           326.6000000    0.015467105736
      1   S       5           106.1000000    0.053298075489
      1   S       6            38.1100000    0.148068335205
      1   S       7            14.7500000    0.307762174037
      1   S       8             6.0350000    0.402129644542
      1   S       9             2.5300000    0.218564503067

      2   S      10         33980.0000000   -0.000055710360
      2   S      11          5089.0000000   -0.000442750757
      2   S      12          1157.0000000   -0.002301717514
      2   S      13           326.6000000   -0.009746380913
      2   S      14           106.1000000   -0.033754614039
      2   S      15            38.1100000   -0.100161363410
      2   S      16            14.7500000   -0.226280822554
      2   S      17             6.0350000   -0.414875052487
      2   S      18             2.5300000   -0.346046368509

      3   S      19             0.7355000    1.000000000000

      4   S      20             0.2905000    1.000000000000

      5   S      21             0.1111000    1.000000000000

      6   P      22            34.5100000    0.031687855209
      6   P      23             7.9150000    0.212894307256
      6   P      24             2.3680000    0.839586752016

      7   P      25             0.8132000    1.000000000000

      8   P      26             0.2890000    1.000000000000

      9   P      27             0.1007000    1.000000000000

     10   D      28             1.8480000    1.000000000000

     11   D      29             0.6490000    1.000000000000

     12   D      30             0.2280000    1.000000000000

     13   F      31             1.4190000    1.000000000000

     14   F      32             0.4850000    1.000000000000

     15   G      33             1.0110000    1.000000000000

 H         

     16   S      34            82.6400000    0.022950757793
     16   S      35            12.4100000    0.175540118054
     16   S      36             2.8240000    0.864703550962

     17   S      37             0.7977000    1.000000000000

     18   S      38             0.2581000    1.000000000000

     19   S      39             0.0898900    1.000000000000

     20   P      40             2.2920000    1.000000000000

     21   P      41             0.8380000    1.000000000000

     22   P      42             0.2920000    1.000000000000

     23   D      43             2.0620000    1.000000000000

     24   D      44             0.6620000    1.000000000000

     25   F      45             1.3970000    1.000000000000

 H         

     26   S      46            82.6400000    0.022950757793
     26   S      47            12.4100000    0.175540118054
     26   S      48             2.8240000    0.864703550962

     27   S      49             0.7977000    1.000000000000

     28   S      50             0.2581000    1.000000000000

     29   S      51             0.0898900    1.000000000000

     30   P      52             2.2920000    1.000000000000

     31   P      53             0.8380000    1.000000000000

     32   P      54             0.2920000    1.000000000000

     33   D      55             2.0620000    1.000000000000

     34   D      56             0.6620000    1.000000000000

     35   F      57             1.3970000    1.000000000000

 TOTAL NUMBER OF BASIS SET SHELLS             =   35
 NUMBER OF CARTESIAN GAUSSIAN BASIS FUNCTIONS =  140
 NOTE: THIS RUN WILL RESTRICT THE MO VARIATION SPACE TO SPHERICAL HARMONICS.
 THE NUMBER OF ORBITALS KEPT IN THE VARIATIONAL SPACE WILL BE PRINTED LATER.
 NUMBER OF ELECTRONS                          =    8
 CHARGE OF MOLECULE                           =    0
 SPIN MULTIPLICITY                            =    1
 NUMBER OF OCCUPIED ORBITALS (ALPHA)          =    4
 NUMBER OF OCCUPIED ORBITALS (BETA )          =    4
 TOTAL NUMBER OF ATOMS                        =    3
 THE NUCLEAR REPULSION ENERGY IS        6.0337757527

     $CONTRL OPTIONS
     ---------------
 SCFTYP=RHF          RUNTYP=ENERGY       EXETYP=RUN     
 MPLEVL=       0     CITYP =NONE         CCTYP =NONE         VBTYP =NONE    
 DFTTYP=NONE         TDDFT =NONE    
 MULT  =       1     ICHARG=       0     NZVAR =       0     COORD =UNIQUE  
 PP    =NONE         RELWFN=NONE         LOCAL =NONE         NUMGRD=       F
 ISPHER=       1     NOSYM =       0     MAXIT =      30     UNITS =ANGS    
 PLTORB=       F     MOLPLT=       F     AIMPAC=       F     FRIEND=        
 NPRINT=       7     IREST =       0     GEOM  =INPUT   
 NORMF =       0     NORMP =       0     ITOL  =      20     ICUT  =       9
 INTTYP=BEST         GRDTYP=BEST         QMTTOL= 1.0E-06

     $SYSTEM OPTIONS
     ---------------
  REPLICATED MEMORY=     1000000 WORDS (ON EVERY NODE).
 DISTRIBUTED MEMDDI=           0 MILLION WORDS IN AGGREGATE,
 MEMDDI DISTRIBUTED OVER   2 PROCESSORS IS           0 WORDS/PROCESSOR.
 TOTAL MEMORY REQUESTED ON EACH PROCESSOR=     1000000 WORDS.
 TIMLIM=        1000.00 MINUTES, OR       0.7 DAYS.
 PARALL= T  BALTYP=  DLB     KDIAG=    0  COREFL= F
 MXSEQ2=     300 MXSEQ3=     150  mem10=         0

          ----------------
          PROPERTIES INPUT
          ----------------

     MOMENTS            FIELD           POTENTIAL          DENSITY
 IEMOM =       1   IEFLD =       0   IEPOT =       0   IEDEN =       0
 WHERE =COMASS     WHERE =NUCLEI     WHERE =NUCLEI     WHERE =NUCLEI  
 OUTPUT=BOTH       OUTPUT=BOTH       OUTPUT=BOTH       OUTPUT=BOTH    
 IEMINT=       0   IEFINT=       0                     IEDINT=       0
                                                       MORB  =       0
          EXTRAPOLATION IN EFFECT
          SOSCF IN EFFECT
 ORBITAL PRINTING OPTION: NPREO=     1   140     2     1

     -------------------------------
     INTEGRAL TRANSFORMATION OPTIONS
     -------------------------------
     NWORD  =            0
     CUTOFF = 1.0E-09     MPTRAN =       0
     DIRTRF =       F     AOINTS =DUP     

          ----------------------
          INTEGRAL INPUT OPTIONS
          ----------------------
 NOPK  =       1 NORDER=       0 SCHWRZ=       F

     ------------------------------------------
     THE POINT GROUP IS C1 , NAXIS= 0, ORDER= 1
     ------------------------------------------

 -- VARIATIONAL SPACE WILL BE RESTRICTED TO PURE SPHERICAL HARMONICS ONLY --
 AFTER EXCLUDING CONTAMINANT COMBINATIONS FROM THE CARTESIAN GAUSSIAN BASIS
 SET, THE NUMBER OF SPHERICAL HARMONICS KEPT IN THE VARIATION SPACE IS  115

     DIMENSIONS OF THE SYMMETRY SUBSPACES ARE
 A   =  115

 ..... DONE SETTING UP THE RUN .....
 CPU     0: STEP CPU TIME=     0.00 TOTAL CPU TIME=          0.0 (      0.0 MIN)
 TOTAL WALL CLOCK TIME=          0.0 SECONDS, CPU UTILIZATION IS     0.00%

          ********************
          1 ELECTRON INTEGRALS
          ********************
 ...... END OF ONE-ELECTRON INTEGRALS ......
 CPU     0: STEP CPU TIME=     0.00 TOTAL CPU TIME=          0.0 (      0.0 MIN)
 TOTAL WALL CLOCK TIME=          0.0 SECONDS, CPU UTILIZATION IS     0.00%

          -------------
          GUESS OPTIONS
          -------------
          GUESS =HUCKEL            NORB  =       0          NORDER=       0
          MIX   =       F          PRTMO =       F          PUNMO =       F
          TOLZ  = 1.0E-08          TOLE  = 1.0E-05
          SYMDEN=       F          PURIFY=       F

 INITIAL GUESS ORBITALS GENERATED BY HUCKEL   ROUTINE.
 HUCKEL GUESS REQUIRES    142270 WORDS.

 STATISTICS FOR GENERATION OF SYMMETRY ORBITAL -Q- MATRIX
 NUMBER OF CARTESIAN ATOMIC ORBITALS=        140
 NUMBER OF SPHERICAL CONTAMINANTS DROPPED=    25
 NUMBER OF LINEARLY DEPENDENT MOS DROPPED=     0
 TOTAL NUMBER OF MOS IN VARIATION SPACE=     115

 SYMMETRIES FOR INITIAL GUESS ORBITALS FOLLOW.   BOTH SET(S).
     4 ORBITALS ARE OCCUPIED (    1 CORE ORBITALS).
     2=A        3=A        4=A        5=A        6=A        7=A        8=A   
     9=A       10=A       11=A       12=A       13=A       14=A   
 ...... END OF INITIAL ORBITAL SELECTION ......
 CPU     0: STEP CPU TIME=     0.00 TOTAL CPU TIME=          0.0 (      0.0 MIN)
 TOTAL WALL CLOCK TIME=          0.0 SECONDS, CPU UTILIZATION IS     0.00%

                    ----------------------
                    AO INTEGRAL TECHNOLOGY
                    ----------------------
     S,P,L SHELL ROTATED AXIS INTEGRALS, REPROGRAMMED BY
        KAZUYA ISHIMURA (IMS) AND JOSE SIERRA (SYNSTAR).
     S,P,D,L SHELL ROTATED AXIS INTEGRALS PROGRAMMED BY
        KAZUYA ISHIMURA (INSTITUTE FOR MOLECULAR SCIENCE).
     S,P,D,F,G SHELL TO TOTAL QUARTET ANGULAR MOMENTUM SUM 5,
        ERIC PROGRAM BY GRAHAM FLETCHER (ELORET AND NASA ADVANCED
        SUPERCOMPUTING DIVISION, AMES RESEARCH CENTER).
     S,P,D,F,G,L SHELL GENERAL RYS QUADRATURE PROGRAMMED BY
        MICHEL DUPUIS (PACIFIC NORTHWEST NATIONAL LABORATORY).

          --------------------
          2 ELECTRON INTEGRALS
          --------------------

 THE -PK- OPTION IS OFF, THE INTEGRALS ARE NOT IN SUPERMATRIX FORM.
 STORING   15000 INTEGRALS/RECORD ON DISK, USING 12 BYTES/INTEGRAL.
 TWO ELECTRON INTEGRAL EVALUATION REQUIRES  140355 WORDS OF MEMORY.
 II,JST,KST,LST =  1  1  1  1 NREC =         1 INTLOC =    1
 II,JST,KST,LST =  2  1  1  1 NREC =         1 INTLOC =    2
 II,JST,KST,LST =  3  1  1  1 NREC =         1 INTLOC =    6
 II,JST,KST,LST =  4  1  1  1 NREC =         1 INTLOC =    6
 II,JST,KST,LST =  5  1  1  1 NREC =         1 INTLOC =    6
 II,JST,KST,LST =  6  1  1  1 NREC =         1 INTLOC =   37
 II,JST,KST,LST =  7  1  1  1 NREC =         1 INTLOC =  136
 II,JST,KST,LST =  8  1  1  1 NREC =         1 INTLOC =  277
 II,JST,KST,LST =  9  1  1  1 NREC =         1 INTLOC =  412
 II,JST,KST,LST = 10  1  1  1 NREC =         1 INTLOC =  880
 II,JST,KST,LST = 11  1  1  1 NREC =         1 INTLOC = 2131
 II,JST,KST,LST = 12  1  1  1 NREC =         1 INTLOC = 6415
 II,JST,KST,LST = 13  1  1  1 NREC =         1 INTLOC =14710
 II,JST,KST,LST = 14  1  1  1 NREC =         3 INTLOC = 2995
 II,JST,KST,LST = 15  1  1  1 NREC =         6 INTLOC = 1188
 II,JST,KST,LST = 16  1  1  1 NREC =        15 INTLOC = 9120
 II,JST,KST,LST = 17  1  1  1 NREC =        15 INTLOC =11929
 II,JST,KST,LST = 18  1  1  1 NREC =        18 INTLOC = 5618
 II,JST,KST,LST = 19  1  1  1 NREC =        21 INTLOC = 3712
 II,JST,KST,LST = 20  1  1  1 NREC =        25 INTLOC = 6759
 II,JST,KST,LST = 21  1  1  1 NREC =        37 INTLOC =10738
 II,JST,KST,LST = 22  1  1  1 NREC =        51 INTLOC = 9105
 II,JST,KST,LST = 23  1  1  1 NREC =        66 INTLOC = 9858
 II,JST,KST,LST = 24  1  1  1 NREC =        95 INTLOC =  632
 II,JST,KST,LST = 25  1  1  1 NREC =       138 INTLOC = 4400
 II,JST,KST,LST = 26  1  1  1 NREC =       208 INTLOC = 3738
 II,JST,KST,LST = 27  1  1  1 NREC =       224 INTLOC = 6238
 II,JST,KST,LST = 28  1  1  1 NREC =       233 INTLOC =10989
 II,JST,KST,LST = 29  1  1  1 NREC =       243 INTLOC =11565
 II,JST,KST,LST = 30  1  1  1 NREC =       255 INTLOC = 5297
 II,JST,KST,LST = 31  1  1  1 NREC =       294 INTLOC = 8035
 II,JST,KST,LST = 32  1  1  1 NREC =       335 INTLOC = 1546
 II,JST,KST,LST = 33  1  1  1 NREC =       379 INTLOC =10744
 II,JST,KST,LST = 34  1  1  1 NREC =       457 INTLOC = 9482
 II,JST,KST,LST = 35  1  1  1 NREC =       565 INTLOC =  976
 TOTAL NUMBER OF NONZERO TWO-ELECTRON INTEGRALS =            22698737
       1514 INTEGRAL RECORDS WERE STORED ON DISK FILE  8.
  ...... END OF TWO-ELECTRON INTEGRALS .....
 CPU     0: STEP CPU TIME=     0.49 TOTAL CPU TIME=          0.5 (      0.0 MIN)
 TOTAL WALL CLOCK TIME=          0.5 SECONDS, CPU UTILIZATION IS    96.08%

          --------------------------
                 RHF SCF CALCULATION
          --------------------------

     NUCLEAR ENERGY =         6.0337757527
     MAXIT =   30     NPUNCH=    2
     EXTRAP=T  DAMP=F  SHIFT=F  RSTRCT=F  DIIS=F  DEM=F  SOSCF=T
     DENSITY MATRIX CONV=  1.00E-05
     SOSCF WILL OPTIMIZE     444 ORBITAL ROTATIONS, SOGTOL=   0.250
     MEMORY REQUIRED FOR RHF ITERS=    170936 WORDS.

 ITER EX DEM     TOTAL ENERGY        E CHANGE  DENSITY CHANGE     ORB. GRAD
   1  0  0      -38.7426609693   -38.7426609693   0.618723031   0.000000000
          ---------------START SECOND ORDER SCF---------------
   2  1  0      -38.8879248208    -0.1452638515   0.069362019   0.025670424
   3  2  0      -38.8942372582    -0.0063124374   0.018909265   0.007424958
   4  3  0      -38.8950534841    -0.0008162259   0.002463036   0.001263627
   5  4  0      -38.8950695732    -0.0000160891   0.001271941   0.000426092
   6  5  0      -38.8950717387    -0.0000021654   0.000132414   0.000053645
   7  6  0      -38.8950717977    -0.0000000591   0.000083900   0.000014016
   8  7  0      -38.8950718024    -0.0000000046   0.000007791   0.000003219
   9  8  0      -38.8950718025    -0.0000000002   0.000003981   0.000000694

          -----------------
          DENSITY CONVERGED
          -----------------
     TIME TO FORM FOCK OPERATORS=       0.7 SECONDS (       0.1 SEC/ITER)
     TIME TO SOLVE SCF EQUATIONS=       0.0 SECONDS (       0.0 SEC/ITER)

 FINAL RHF ENERGY IS      -38.8950718025 AFTER   9 ITERATIONS

          ------------
          EIGENVECTORS
          ------------

                      1          2          3          4          5
                  -11.2917    -0.8923    -0.5643    -0.3963     0.0422
                     A          A          A          A          A   
    1  C  1  S    0.993036  -0.005316   0.000000  -0.003446   0.000000
    2  C  1  S    0.000409   0.275288   0.000000  -0.149393   0.000000
    3  C  1  S    0.017585   0.215462   0.000000  -0.119321   0.000000
    4  C  1  S   -0.008839   0.417162   0.000000  -0.293726   0.000000
    5  C  1  S   -0.000408   0.132588   0.000000  -0.269522   0.000000
    6  C  1  X    0.000000   0.000000   0.000000  -0.000000   0.104200
    7  C  1  Y    0.000000   0.000000   0.115586  -0.000000   0.000000
    8  C  1  Z    0.002482   0.033371   0.000000   0.131152   0.000000
    9  C  1  X    0.000000   0.000000   0.000000  -0.000000   0.228947
   10  C  1  Y    0.000000   0.000000   0.226457  -0.000000   0.000000
   11  C  1  Z   -0.001013   0.071547   0.000000   0.254104   0.000000
   12  C  1  X    0.000000   0.000000   0.000000  -0.000000   0.222630
   13  C  1  Y    0.000000   0.000000   0.247357   0.000000   0.000000
   14  C  1  Z   -0.002459   0.071370   0.000000   0.323728   0.000000
   15  C  1  X    0.000000   0.000000   0.000000  -0.000000   0.652710
   16  C  1  Y    0.000000   0.000000   0.078725   0.000000   0.000000
   17  C  1  Z   -0.000471   0.007077   0.000000   0.228655   0.000000
   18  C  1 XX    0.000126  -0.004603   0.000000  -0.003294   0.000000
   19  C  1 YY   -0.000075   0.002537   0.000000   0.000160   0.000000
   20  C  1 ZZ   -0.000051   0.002067   0.000000   0.003133   0.000000
   21  C  1 XY    0.000000   0.000000   0.000000  -0.000000   0.000000
   22  C  1 XZ    0.000000   0.000000   0.000000  -0.000000   0.004452
   23  C  1 YZ    0.000000   0.000000   0.009714  -0.000000   0.000000
   24  C  1 XX   -0.000236  -0.011314   0.000000  -0.010498   0.000000
   25  C  1 YY    0.000135   0.007680   0.000000  -0.001462   0.000000
   26  C  1 ZZ    0.000101   0.003634   0.000000   0.011960   0.000000
   27  C  1 XY    0.000000   0.000000   0.000000  -0.000000   0.000000
   28  C  1 XZ    0.000000   0.000000   0.000000  -0.000000  -0.004448
   29  C  1 YZ    0.000000   0.000000   0.027871   0.000000   0.000000
   30  C  1 XX    0.000653  -0.012631   0.000000  -0.019816   0.000000
   31  C  1 YY   -0.000490   0.004103   0.000000  -0.009603   0.000000
   32  C  1 ZZ   -0.000163   0.008528   0.000000   0.029420   0.000000
   33  C  1 XY    0.000000   0.000000   0.000000  -0.000000   0.000000
   34  C  1 XZ    0.000000   0.000000   0.000000  -0.000000   0.054126
   35  C  1 YZ    0.000000   0.000000   0.023149   0.000000   0.000000
   36  C  1 XXX   0.000000   0.000000   0.000000  -0.000000   0.002356
   37  C  1 YYY   0.000000   0.000000  -0.000374  -0.000000   0.000000
   38  C  1 ZZZ  -0.000021  -0.001255   0.000000  -0.001435   0.000000
   39  C  1 XXY   0.000000   0.000000  -0.000171  -0.000000   0.000000
   40  C  1 XXZ   0.000021  -0.000634   0.000000   0.001166   0.000000
   41  C  1 YYX   0.000000   0.000000   0.000000  -0.000000  -0.001571
   42  C  1 YYZ   0.000008   0.002317   0.000000   0.000760   0.000000
   43  C  1 ZZX   0.000000   0.000000   0.000000  -0.000000  -0.001590
   44  C  1 ZZY   0.000000   0.000000   0.000673  -0.000000   0.000000
   45  C  1 XYZ   0.000000   0.000000   0.000000  -0.000000   0.000000
   46  C  1 XXX   0.000000   0.000000   0.000000  -0.000000   0.004720
   47  C  1 YYY   0.000000   0.000000  -0.001790  -0.000000   0.000000
   48  C  1 ZZZ   0.000059  -0.001372   0.000000  -0.001854   0.000000
   49  C  1 XXY   0.000000   0.000000   0.001462  -0.000000   0.000000
   50  C  1 XXZ   0.000139  -0.002394   0.000000   0.003126   0.000000
   51  C  1 YYX   0.000000   0.000000   0.000000  -0.000000  -0.003028
   52  C  1 YYZ  -0.000218   0.004234   0.000000  -0.000639   0.000000
   53  C  1 ZZX   0.000000   0.000000   0.000000  -0.000000  -0.003304
   54  C  1 ZZY   0.000000   0.000000   0.000940  -0.000000   0.000000
   55  C  1 XYZ   0.000000   0.000000   0.000000  -0.000000   0.000000
   56  C  1XXXX  -0.000018   0.000028   0.000000  -0.000144   0.000000
   57  C  1YYYY   0.000090  -0.000344   0.000000  -0.000362   0.000000
   58  C  1ZZZZ   0.000052  -0.000416   0.000000  -0.000299   0.000000
   59  C  1XXXY   0.000000   0.000000   0.000000  -0.000000   0.000000
   60  C  1XXXZ   0.000000   0.000000   0.000000  -0.000000   0.001571
   61  C  1YYYX   0.000000   0.000000   0.000000  -0.000000   0.000000
   62  C  1YYYZ   0.000000   0.000000   0.000399  -0.000000   0.000000
   63  C  1ZZZX   0.000000   0.000000   0.000000  -0.000000   0.000091
   64  C  1ZZZY   0.000000   0.000000  -0.000573  -0.000000   0.000000
   65  C  1XXYY  -0.000018  -0.000087   0.000000   0.000181   0.000000
   66  C  1XXZZ   0.000049   0.000038   0.000000   0.000071   0.000000
   67  C  1YYZZ  -0.000141   0.000692   0.000000   0.000454   0.000000
   68  C  1XXYZ   0.000000   0.000000   0.000233  -0.000000   0.000000
   69  C  1YYXZ   0.000000   0.000000   0.000000  -0.000000  -0.002229
   70  C  1ZZXY   0.000000   0.000000   0.000000  -0.000000   0.000000
   71  H  2  S   -0.000011   0.041755   0.053793   0.025055   0.000000
   72  H  2  S    0.000670   0.107508   0.143872   0.068573   0.000000
   73  H  2  S    0.003474   0.119927   0.225819   0.115357   0.000000
   74  H  2  S    0.000027   0.014566   0.077199   0.037265   0.000000
   75  H  2  X    0.000000   0.000000   0.000000  -0.000000   0.001283
   76  H  2  Y    0.000065  -0.003485  -0.001700  -0.001768   0.000000
   77  H  2  Z    0.000002  -0.002273  -0.002672   0.001388   0.000000
   78  H  2  X    0.000000   0.000000   0.000000  -0.000000   0.019050
   79  H  2  Y   -0.000610  -0.011476  -0.009349  -0.008992   0.000000
   80  H  2  Z   -0.000301  -0.007498  -0.012889   0.001313   0.000000
   81  H  2  X    0.000000   0.000000   0.000000  -0.000000  -0.000279
   82  H  2  Y   -0.001134  -0.008580  -0.012396  -0.007766   0.000000
   83  H  2  Z   -0.000834  -0.004671  -0.014968   0.005112   0.000000
   84  H  2 XX   -0.000060  -0.000650  -0.000612  -0.000329   0.000000
   85  H  2 YY    0.000055   0.000695   0.000101   0.000936   0.000000
   86  H  2 ZZ    0.000006  -0.000045   0.000511  -0.000607   0.000000
   87  H  2 XY    0.000000   0.000000   0.000000  -0.000000  -0.001083
   88  H  2 XZ    0.000000   0.000000   0.000000  -0.000000  -0.000391
   89  H  2 YZ    0.000101   0.000991   0.001186   0.000097   0.000000
   90  H  2 XX   -0.000163  -0.000931  -0.001078  -0.000120   0.000000
   91  H  2 YY    0.000270   0.001471   0.000172   0.001759   0.000000
   92  H  2 ZZ   -0.000107  -0.000539   0.000906  -0.001639   0.000000
   93  H  2 XY    0.000000   0.000000   0.000000  -0.000000  -0.003982
   94  H  2 XZ    0.000000   0.000000   0.000000  -0.000000  -0.005658
   95  H  2 YZ    0.000277   0.002145   0.004201   0.001718   0.000000
   96  H  2 XXX   0.000000   0.000000   0.000000  -0.000000  -0.001107
   97  H  2 YYY  -0.000053  -0.000176   0.000339  -0.000251   0.000000
   98  H  2 ZZZ   0.000103   0.000205   0.000224   0.000370   0.000000
   99  H  2 XXY   0.000087   0.000130   0.000140   0.000238   0.000000
  100  H  2 XXZ   0.000042   0.000002   0.000256   0.000091   0.000000
  101  H  2 YYX   0.000000   0.000000   0.000000  -0.000000   0.000955
  102  H  2 YYZ  -0.000180  -0.000278  -0.000556  -0.000588   0.000000
  103  H  2 ZZX   0.000000   0.000000   0.000000  -0.000000   0.000529
  104  H  2 ZZY  -0.000016   0.000106  -0.000595   0.000098   0.000000
  105  H  2 XYZ   0.000000   0.000000   0.000000  -0.000000   0.001552
  106  H  3  S   -0.000011   0.041755  -0.053793   0.025055   0.000000
  107  H  3  S    0.000670   0.107508  -0.143872   0.068573   0.000000
  108  H  3  S    0.003474   0.119927  -0.225819   0.115357   0.000000
  109  H  3  S    0.000027   0.014566  -0.077199   0.037265   0.000000
  110  H  3  X    0.000000   0.000000   0.000000  -0.000000   0.001283
  111  H  3  Y   -0.000065   0.003485  -0.001700   0.001768   0.000000
  112  H  3  Z    0.000002  -0.002273   0.002672   0.001388   0.000000
  113  H  3  X    0.000000   0.000000   0.000000  -0.000000   0.019050
  114  H  3  Y    0.000610   0.011476  -0.009349   0.008992   0.000000
  115  H  3  Z   -0.000301  -0.007498   0.012889   0.001313   0.000000
  116  H  3  X    0.000000   0.000000   0.000000  -0.000000  -0.000279
  117  H  3  Y    0.001134   0.008580  -0.012396   0.007766   0.000000
  118  H  3  Z   -0.000834  -0.004671   0.014968   0.005112   0.000000
  119  H  3 XX   -0.000060  -0.000650   0.000612  -0.000329   0.000000
  120  H  3 YY    0.000055   0.000695  -0.000101   0.000936   0.000000
  121  H  3 ZZ    0.000006  -0.000045  -0.000511  -0.000607   0.000000
  122  H  3 XY    0.000000   0.000000   0.000000  -0.000000   0.001083
  123  H  3 XZ    0.000000   0.000000   0.000000  -0.000000  -0.000391
  124  H  3 YZ   -0.000101  -0.000991   0.001186  -0.000097   0.000000
  125  H  3 XX   -0.000163  -0.000931   0.001078  -0.000120   0.000000
  126  H  3 YY    0.000270   0.001471  -0.000172   0.001759   0.000000
  127  H  3 ZZ   -0.000107  -0.000539  -0.000906  -0.001639   0.000000
  128  H  3 XY    0.000000   0.000000   0.000000  -0.000000   0.003982
  129  H  3 XZ    0.000000   0.000000   0.000000  -0.000000  -0.005658
  130  H  3 YZ   -0.000277  -0.002145   0.004201  -0.001718   0.000000
  131  H  3 XXX   0.000000   0.000000   0.000000  -0.000000  -0.001107
  132  H  3 YYY   0.000053   0.000176   0.000339   0.000251   0.000000
  133  H  3 ZZZ   0.000103   0.000205  -0.000224   0.000370   0.000000
  134  H  3 XXY  -0.000087  -0.000130   0.000140  -0.000238   0.000000
  135  H  3 XXZ   0.000042   0.000002  -0.000256   0.000091   0.000000
  136  H  3 YYX   0.000000   0.000000   0.000000  -0.000000   0.000955
  137  H  3 YYZ  -0.000180  -0.000278   0.000556  -0.000588   0.000000
  138  H  3 ZZX   0.000000   0.000000   0.000000  -0.000000   0.000529
  139  H  3 ZZY   0.000016  -0.000106  -0.000595  -0.000098   0.000000
  140  H  3 XYZ   0.000000   0.000000   0.000000  -0.000000  -0.001552

                      6          7          8          9         10
                    0.1223     0.1880     0.2908     0.3257     0.3814
                     A          A          A          A          A   
    1  C  1  S    0.001594   0.000000  -0.000000  -0.001598   0.000000
    2  C  1  S    0.098882   0.000000  -0.000000   0.042890   0.000000
    3  C  1  S    0.003122   0.000000  -0.000000  -0.238928   0.000000
    4  C  1  S    0.816007   0.000000  -0.000000   2.040763   0.000000
    5  C  1  S    3.893048   0.000000  -0.000000   4.205349   0.000000
    6  C  1  X   -0.000000   0.000000  -0.000000  -0.000000  -0.146804
    7  C  1  Y   -0.000000  -0.067118   0.026531  -0.000000   0.000000
    8  C  1  Z    0.032265   0.000000  -0.000000  -0.092473   0.000000
    9  C  1  X   -0.000000   0.000000  -0.000000  -0.000000  -0.125993
   10  C  1  Y   -0.000000  -0.103039  -0.025846  -0.000000   0.000000
   11  C  1  Z    0.050628   0.000000  -0.000000  -0.041101   0.000000
   12  C  1  X   -0.000000   0.000000  -0.000000  -0.000000  -0.993849
   13  C  1  Y   -0.000000  -0.476458  -1.981079  -0.000000   0.000000
   14  C  1  Z    0.732721   0.000000  -0.000000   0.894694   0.000000
   15  C  1  X   -0.000000   0.000000  -0.000000  -0.000000   1.350513
   16  C  1  Y   -0.000000  -1.663258  -3.116902  -0.000000   0.000000
   17  C  1  Z    1.268766   0.000000  -0.000000   2.739460   0.000000
   18  C  1 XX   -0.000008   0.000000  -0.000000   0.005394   0.000000
   19  C  1 YY   -0.000516   0.000000  -0.000000  -0.006030   0.000000
   20  C  1 ZZ    0.000524   0.000000  -0.000000   0.000636   0.000000
   21  C  1 XY   -0.000000   0.000000  -0.000000  -0.000000   0.000000
   22  C  1 XZ   -0.000000   0.000000  -0.000000  -0.000000   0.005318
   23  C  1 YZ   -0.000000  -0.002423   0.020916  -0.000000   0.000000
   24  C  1 XX   -0.020330   0.000000  -0.000000  -0.088694   0.000000
   25  C  1 YY    0.011627   0.000000  -0.000000   0.080414   0.000000
   26  C  1 ZZ    0.008704   0.000000  -0.000000   0.008281   0.000000
   27  C  1 XY   -0.000000   0.000000  -0.000000  -0.000000   0.000000
   28  C  1 XZ   -0.000000   0.000000  -0.000000  -0.000000  -0.056699
   29  C  1 YZ   -0.000000   0.022338  -0.224511  -0.000000   0.000000
   30  C  1 XX   -0.299534   0.000000  -0.000000  -0.551182   0.000000
   31  C  1 YY    0.172119   0.000000  -0.000000   0.081150   0.000000
   32  C  1 ZZ    0.127415   0.000000  -0.000000   0.470032   0.000000
   33  C  1 XY   -0.000000   0.000000  -0.000000  -0.000000   0.000000
   34  C  1 XZ   -0.000000   0.000000  -0.000000  -0.000000   0.117972
   35  C  1 YZ   -0.000000  -0.257439  -1.272322  -0.000000   0.000000
   36  C  1 XXX  -0.000000   0.000000  -0.000000  -0.000000   0.006552
   37  C  1 YYY  -0.000000   0.000541   0.003335  -0.000000   0.000000
   38  C  1 ZZZ  -0.000924   0.000000  -0.000000  -0.010298   0.000000
   39  C  1 XXY  -0.000000  -0.004337   0.000669  -0.000000   0.000000
   40  C  1 XXZ   0.002635   0.000000  -0.000000  -0.000081   0.000000
   41  C  1 YYX  -0.000000   0.000000  -0.000000  -0.000000  -0.006353
   42  C  1 YYZ  -0.001396   0.000000  -0.000000   0.013898   0.000000
   43  C  1 ZZX  -0.000000   0.000000  -0.000000  -0.000000  -0.002437
   44  C  1 ZZY  -0.000000   0.003611  -0.005143  -0.000000   0.000000
   45  C  1 XYZ  -0.000000   0.000000  -0.000000  -0.000000   0.000000
   46  C  1 XXX  -0.000000   0.000000  -0.000000  -0.000000  -0.006783
   47  C  1 YYY  -0.000000   0.000740  -0.003258  -0.000000   0.000000
   48  C  1 ZZZ  -0.007180   0.000000  -0.000000   0.024945   0.000000
   49  C  1 XXY  -0.000000   0.002107   0.141135  -0.000000   0.000000
   50  C  1 XXZ  -0.035256   0.000000  -0.000000  -0.101346   0.000000
   51  C  1 YYX  -0.000000   0.000000  -0.000000  -0.000000   0.000158
   52  C  1 YYZ   0.044889   0.000000  -0.000000   0.067879   0.000000
   53  C  1 ZZX  -0.000000   0.000000  -0.000000  -0.000000   0.008943
   54  C  1 ZZY  -0.000000  -0.003101  -0.136763  -0.000000   0.000000
   55  C  1 XYZ  -0.000000   0.000000  -0.000000  -0.000000   0.000000
   56  C  1XXXX   0.002325   0.000000  -0.000000   0.005778   0.000000
   57  C  1YYYY  -0.002871   0.000000  -0.000000  -0.002867   0.000000
   58  C  1ZZZZ  -0.002104   0.000000  -0.000000   0.001132   0.000000
   59  C  1XXXY  -0.000000   0.000000  -0.000000  -0.000000   0.000000
   60  C  1XXXZ  -0.000000   0.000000  -0.000000  -0.000000   0.008936
   61  C  1YYYX  -0.000000   0.000000  -0.000000  -0.000000   0.000000
   62  C  1YYYZ  -0.000000   0.001645  -0.008604  -0.000000   0.000000
   63  C  1ZZZX  -0.000000   0.000000  -0.000000  -0.000000   0.002241
   64  C  1ZZZY  -0.000000  -0.000696  -0.003985  -0.000000   0.000000
   65  C  1XXYY  -0.001368   0.000000  -0.000000  -0.001562   0.000000
   66  C  1XXZZ  -0.002716   0.000000  -0.000000  -0.008587   0.000000
   67  C  1YYZZ   0.006412   0.000000  -0.000000   0.006598   0.000000
   68  C  1XXYZ  -0.000000  -0.001273   0.016890  -0.000000   0.000000
   69  C  1YYXZ  -0.000000   0.000000  -0.000000  -0.000000  -0.014995
   70  C  1ZZXY  -0.000000   0.000000  -0.000000  -0.000000   0.000000
   71  H  2  S    0.004933  -0.004657   0.022514  -0.018076   0.000000
   72  H  2  S   -0.026656   0.030527   0.054282   0.052571   0.000000
   73  H  2  S   -0.833826   0.188629   3.404994  -2.643382   0.000000
   74  H  2  S   -2.156809   2.833662   1.329636  -1.175242   0.000000
   75  H  2  X   -0.000000   0.000000  -0.000000  -0.000000  -0.014968
   76  H  2  Y    0.001013  -0.005820   0.017625  -0.012346   0.000000
   77  H  2  Z    0.000503  -0.003543   0.010172  -0.012916   0.000000
   78  H  2  X   -0.000000   0.000000  -0.000000  -0.000000   0.059481
   79  H  2  Y   -0.011045   0.047236  -0.154509   0.088907   0.000000
   80  H  2  Z   -0.003319   0.039692  -0.087324   0.092339   0.000000
   81  H  2  X   -0.000000   0.000000  -0.000000  -0.000000  -0.201298
   82  H  2  Y    0.405053  -0.244401  -0.722001   0.824591   0.000000
   83  H  2  Z    0.248761  -0.180934  -0.657117   0.262224   0.000000
   84  H  2 XX   -0.002107   0.002178  -0.002314  -0.002573   0.000000
   85  H  2 YY    0.002322  -0.002124   0.001905   0.005276   0.000000
   86  H  2 ZZ   -0.000215  -0.000054   0.000409  -0.002703   0.000000
   87  H  2 XY   -0.000000   0.000000  -0.000000  -0.000000  -0.000611
   88  H  2 XZ   -0.000000   0.000000  -0.000000  -0.000000   0.000945
   89  H  2 YZ    0.002759  -0.003503  -0.000984  -0.000023   0.000000
   90  H  2 XX    0.021943  -0.005747  -0.053539   0.070501   0.000000
   91  H  2 YY   -0.024070   0.008918   0.053257  -0.085844   0.000000
   92  H  2 ZZ    0.002127  -0.003170   0.000283   0.015343   0.000000
   93  H  2 XY   -0.000000   0.000000  -0.000000  -0.000000  -0.009454
   94  H  2 XZ   -0.000000   0.000000  -0.000000  -0.000000  -0.016584
   95  H  2 YZ   -0.029491   0.009507   0.111952  -0.075962   0.000000
   96  H  2 XXX  -0.000000   0.000000  -0.000000  -0.000000  -0.003840
   97  H  2 YYY   0.000758  -0.000449  -0.002588   0.001790   0.000000
   98  H  2 ZZZ  -0.000811  -0.000743   0.003720  -0.001820   0.000000
   99  H  2 XXY  -0.000545  -0.000532   0.007510  -0.008095   0.000000
  100  H  2 XXZ  -0.000417  -0.000891   0.006015  -0.007253   0.000000
  101  H  2 YYX  -0.000000   0.000000  -0.000000  -0.000000   0.003110
  102  H  2 YYZ   0.001505   0.001888  -0.011006   0.009695   0.000000
  103  H  2 ZZX  -0.000000   0.000000  -0.000000  -0.000000   0.002042
  104  H  2 ZZY  -0.000473   0.001134  -0.004038   0.005694   0.000000
  105  H  2 XYZ  -0.000000   0.000000  -0.000000  -0.000000   0.005078
  106  H  3  S    0.004933   0.004657  -0.022514  -0.018076   0.000000
  107  H  3  S   -0.026656  -0.030527  -0.054282   0.052571   0.000000
  108  H  3  S   -0.833826  -0.188629  -3.404994  -2.643382   0.000000
  109  H  3  S   -2.156809  -2.833662  -1.329636  -1.175242   0.000000
  110  H  3  X   -0.000000   0.000000  -0.000000  -0.000000  -0.014968
  111  H  3  Y   -0.001013  -0.005820   0.017625   0.012346   0.000000
  112  H  3  Z    0.000503   0.003543  -0.010172  -0.012916   0.000000
  113  H  3  X   -0.000000   0.000000  -0.000000  -0.000000   0.059481
  114  H  3  Y    0.011045   0.047236  -0.154509  -0.088907   0.000000
  115  H  3  Z   -0.003319  -0.039692   0.087324   0.092339   0.000000
  116  H  3  X   -0.000000   0.000000  -0.000000  -0.000000  -0.201298
  117  H  3  Y   -0.405053  -0.244401  -0.722001  -0.824591   0.000000
  118  H  3  Z    0.248761   0.180934   0.657117   0.262224   0.000000
  119  H  3 XX   -0.002107  -0.002178   0.002314  -0.002573   0.000000
  120  H  3 YY    0.002322   0.002124  -0.001905   0.005276   0.000000
  121  H  3 ZZ   -0.000215   0.000054  -0.000409  -0.002703   0.000000
  122  H  3 XY   -0.000000   0.000000  -0.000000  -0.000000   0.000611
  123  H  3 XZ   -0.000000   0.000000  -0.000000  -0.000000   0.000945
  124  H  3 YZ   -0.002759  -0.003503  -0.000984   0.000023   0.000000
  125  H  3 XX    0.021943   0.005747   0.053539   0.070501   0.000000
  126  H  3 YY   -0.024070  -0.008918  -0.053257  -0.085844   0.000000
  127  H  3 ZZ    0.002127   0.003170  -0.000283   0.015343   0.000000
  128  H  3 XY   -0.000000   0.000000  -0.000000  -0.000000   0.009454
  129  H  3 XZ   -0.000000   0.000000  -0.000000  -0.000000  -0.016584
  130  H  3 YZ    0.029491   0.009507   0.111952   0.075962   0.000000
  131  H  3 XXX  -0.000000   0.000000  -0.000000  -0.000000  -0.003840
  132  H  3 YYY  -0.000758  -0.000449  -0.002588  -0.001790   0.000000
  133  H  3 ZZZ  -0.000811   0.000743  -0.003720  -0.001820   0.000000
  134  H  3 XXY   0.000545  -0.000532   0.007510   0.008095   0.000000
  135  H  3 XXZ  -0.000417   0.000891  -0.006015  -0.007253   0.000000
  136  H  3 YYX  -0.000000   0.000000  -0.000000  -0.000000   0.003110
  137  H  3 YYZ   0.001505  -0.001888   0.011006   0.009695   0.000000
  138  H  3 ZZX  -0.000000   0.000000  -0.000000  -0.000000   0.002042
  139  H  3 ZZY   0.000473   0.001134  -0.004038  -0.005694   0.000000
  140  H  3 XYZ  -0.000000   0.000000  -0.000000  -0.000000  -0.005078

                     11         12         13         14         15
                    0.4298     0.4952     0.5189     0.5705     0.5709
                     A          A          A          A          A   
    1  C  1  S    0.028646  -0.015908  -0.000000  -0.009789   0.000000
    2  C  1  S   -0.062352  -0.190256  -0.000000  -0.048489   0.000000
    3  C  1  S   -0.311690  -0.426550  -0.000000  -0.034508   0.000000
    4  C  1  S    1.440929   1.704618  -0.000000   0.067761   0.000000
    5  C  1  S    7.058076   6.814177  -0.000000   0.526764   0.000000
    6  C  1  X   -0.000000  -0.000000  -0.000000  -0.000000   0.000000
    7  C  1  Y   -0.000000  -0.000000  -0.121357  -0.000000   0.000000
    8  C  1  Z    0.055310  -0.057269  -0.000000  -0.047752   0.000000
    9  C  1  X   -0.000000  -0.000000  -0.000000  -0.000000   0.000000
   10  C  1  Y   -0.000000  -0.000000  -0.252483  -0.000000   0.000000
   11  C  1  Z    0.027950  -0.164680  -0.000000  -0.099306   0.000000
   12  C  1  X   -0.000000  -0.000000  -0.000000  -0.000000   0.000000
   13  C  1  Y   -0.000000   0.000000   1.775697  -0.000000   0.000000
   14  C  1  Z    2.460651   1.891145  -0.000000  -0.224883   0.000000
   15  C  1  X   -0.000000  -0.000000  -0.000000  -0.000000   0.000000
   16  C  1  Y   -0.000000   0.000000   2.995513  -0.000000   0.000000
   17  C  1  Z    1.425034   1.895788  -0.000000  -0.109681   0.000000
   18  C  1 XX    0.031497   0.004510  -0.000000  -0.021404   0.000000
   19  C  1 YY   -0.024605   0.008727  -0.000000  -0.016908   0.000000
   20  C  1 ZZ   -0.006892  -0.013238  -0.000000   0.038311   0.000000
   21  C  1 XY   -0.000000  -0.000000  -0.000000  -0.000000   0.040271
   22  C  1 XZ   -0.000000  -0.000000  -0.000000  -0.000000   0.000000
   23  C  1 YZ   -0.000000  -0.000000   0.003251  -0.000000   0.000000
   24  C  1 XX   -0.225944  -0.138055  -0.000000   0.062445   0.000000
   25  C  1 YY    0.144393   0.084245  -0.000000   0.027648   0.000000
   26  C  1 ZZ    0.081552   0.053810  -0.000000  -0.090092   0.000000
   27  C  1 XY   -0.000000  -0.000000  -0.000000  -0.000000  -0.089349
   28  C  1 XZ   -0.000000  -0.000000  -0.000000  -0.000000   0.000000
   29  C  1 YZ   -0.000000  -0.000000   0.164723  -0.000000   0.000000
   30  C  1 XX   -0.533169  -0.897005  -0.000000  -0.440165   0.000000
   31  C  1 YY    0.379988   0.688223  -0.000000  -0.050217   0.000000
   32  C  1 ZZ    0.153181   0.208782  -0.000000   0.490382   0.000000
   33  C  1 XY   -0.000000  -0.000000  -0.000000  -0.000000   0.661156
   34  C  1 XZ   -0.000000  -0.000000  -0.000000  -0.000000   0.000000
   35  C  1 YZ   -0.000000   0.000000   1.602218  -0.000000   0.000000
   36  C  1 XXX  -0.000000  -0.000000  -0.000000  -0.000000   0.000000
   37  C  1 YYY  -0.000000  -0.000000  -0.002978  -0.000000   0.000000
   38  C  1 ZZZ  -0.001856  -0.002711  -0.000000   0.002859   0.000000
   39  C  1 XXY  -0.000000  -0.000000   0.003511  -0.000000   0.000000
   40  C  1 XXZ  -0.003928   0.001831  -0.000000   0.002347   0.000000
   41  C  1 YYX  -0.000000  -0.000000  -0.000000  -0.000000   0.000000
   42  C  1 YYZ   0.006418   0.001806  -0.000000  -0.006183   0.000000
   43  C  1 ZZX  -0.000000  -0.000000  -0.000000  -0.000000   0.000000
   44  C  1 ZZY  -0.000000  -0.000000   0.000484  -0.000000   0.000000
   45  C  1 XYZ  -0.000000  -0.000000  -0.000000  -0.000000   0.000688
   46  C  1 XXX  -0.000000  -0.000000  -0.000000  -0.000000   0.000000
   47  C  1 YYY  -0.000000  -0.000000   0.010046  -0.000000   0.000000
   48  C  1 ZZZ  -0.077627  -0.035901  -0.000000   0.009400   0.000000
   49  C  1 XXY  -0.000000  -0.000000  -0.118948  -0.000000   0.000000
   50  C  1 XXZ  -0.125641  -0.120419  -0.000000  -0.007579   0.000000
   51  C  1 YYX  -0.000000  -0.000000  -0.000000  -0.000000   0.000000
   52  C  1 YYZ   0.229789   0.168585  -0.000000  -0.005033   0.000000
   53  C  1 ZZX  -0.000000  -0.000000  -0.000000  -0.000000   0.000000
   54  C  1 ZZY  -0.000000  -0.000000   0.105470  -0.000000   0.000000
   55  C  1 XYZ  -0.000000  -0.000000  -0.000000  -0.000000   0.017142
   56  C  1XXXX   0.013885   0.008280  -0.000000  -0.001391   0.000000
   57  C  1YYYY  -0.016651  -0.010200  -0.000000   0.001282   0.000000
   58  C  1ZZZZ  -0.015953  -0.009290  -0.000000   0.001695   0.000000
   59  C  1XXXY  -0.000000  -0.000000  -0.000000  -0.000000  -0.006949
   60  C  1XXXZ  -0.000000  -0.000000  -0.000000  -0.000000   0.000000
   61  C  1YYYX  -0.000000  -0.000000  -0.000000  -0.000000   0.003297
   62  C  1YYYZ  -0.000000  -0.000000   0.004636  -0.000000   0.000000
   63  C  1ZZZX  -0.000000  -0.000000  -0.000000  -0.000000   0.000000
   64  C  1ZZZY  -0.000000  -0.000000   0.001223  -0.000000   0.000000
   65  C  1XXYY  -0.011582  -0.006472  -0.000000   0.001584   0.000000
   66  C  1XXZZ  -0.012809  -0.008072  -0.000000   0.000859   0.000000
   67  C  1YYZZ   0.040832   0.024390  -0.000000  -0.003837   0.000000
   68  C  1XXYZ  -0.000000  -0.000000  -0.007861  -0.000000   0.000000
   69  C  1YYXZ  -0.000000  -0.000000  -0.000000  -0.000000   0.000000
   70  C  1ZZXY  -0.000000  -0.000000  -0.000000  -0.000000   0.004900
   71  H  2  S   -0.012213   0.041737   0.044185   0.011746   0.000000
   72  H  2  S   -0.070497  -0.007044   0.034060  -0.001862   0.000000
   73  H  2  S   -3.408697  -2.348486  -2.321520   0.166283   0.000000
   74  H  2  S   -1.644918  -2.408399  -2.950183  -0.379038   0.000000
   75  H  2  X   -0.000000  -0.000000  -0.000000  -0.000000   0.032620
   76  H  2  Y   -0.023568   0.015291   0.004598  -0.010340   0.000000
   77  H  2  Z   -0.002395  -0.002459   0.012652   0.031033   0.000000
   78  H  2  X   -0.000000  -0.000000  -0.000000  -0.000000  -0.109555
   79  H  2  Y    0.181602   0.028321   0.023653   0.025489   0.000000
   80  H  2  Z    0.098057   0.058178  -0.004050  -0.111404   0.000000
   81  H  2  X   -0.000000  -0.000000  -0.000000  -0.000000   0.420584
   82  H  2  Y    0.816311   1.380698   1.101128  -0.123153   0.000000
   83  H  2  Z    0.737672   0.720024   1.070468   0.543163   0.000000
   84  H  2 XX    0.000318  -0.003908  -0.003536  -0.002933   0.000000
   85  H  2 YY    0.002141   0.002914   0.003378   0.004319   0.000000
   86  H  2 ZZ   -0.002459   0.000994   0.000157  -0.001386   0.000000
   87  H  2 XY   -0.000000  -0.000000  -0.000000  -0.000000  -0.001830
   88  H  2 XZ   -0.000000  -0.000000  -0.000000  -0.000000  -0.003489
   89  H  2 YZ   -0.002412   0.004676   0.007323   0.001541   0.000000
   90  H  2 XX    0.068224   0.068542   0.058848   0.007131   0.000000
   91  H  2 YY   -0.075232  -0.074215  -0.046207   0.001088   0.000000
   92  H  2 ZZ    0.007008   0.005673  -0.012640  -0.008219   0.000000
   93  H  2 XY   -0.000000  -0.000000  -0.000000  -0.000000   0.003894
   94  H  2 XZ   -0.000000  -0.000000  -0.000000  -0.000000   0.008810
   95  H  2 YZ   -0.103771  -0.096586  -0.098693  -0.003321   0.000000
   96  H  2 XXX  -0.000000  -0.000000  -0.000000  -0.000000  -0.005389
   97  H  2 YYY   0.000921   0.004022   0.001133  -0.006822   0.000000
   98  H  2 ZZZ  -0.004202  -0.004646   0.000155   0.005554   0.000000
   99  H  2 XXY  -0.003829  -0.002407  -0.004195   0.000992   0.000000
  100  H  2 XXZ  -0.001593  -0.001079  -0.002961  -0.001154   0.000000
  101  H  2 YYX  -0.000000  -0.000000  -0.000000  -0.000000   0.004835
  102  H  2 YYZ   0.007230   0.007312   0.002753  -0.006298   0.000000
  103  H  2 ZZX  -0.000000  -0.000000  -0.000000  -0.000000   0.002396
  104  H  2 ZZY   0.002593  -0.002989   0.002674   0.008160   0.000000
  105  H  2 XYZ  -0.000000  -0.000000  -0.000000  -0.000000   0.007145
  106  H  3  S   -0.012213   0.041737  -0.044185   0.011746   0.000000
  107  H  3  S   -0.070497  -0.007044  -0.034060  -0.001862   0.000000
  108  H  3  S   -3.408697  -2.348486   2.321520   0.166283   0.000000
  109  H  3  S   -1.644918  -2.408399   2.950183  -0.379038   0.000000
  110  H  3  X   -0.000000  -0.000000  -0.000000  -0.000000  -0.032620
  111  H  3  Y    0.023568  -0.015291   0.004598   0.010340   0.000000
  112  H  3  Z   -0.002395  -0.002459  -0.012652   0.031033   0.000000
  113  H  3  X   -0.000000  -0.000000  -0.000000  -0.000000   0.109555
  114  H  3  Y   -0.181602  -0.028321   0.023653  -0.025489   0.000000
  115  H  3  Z    0.098057   0.058178   0.004050  -0.111404   0.000000
  116  H  3  X   -0.000000  -0.000000  -0.000000  -0.000000  -0.420584
  117  H  3  Y   -0.816311  -1.380698   1.101128   0.123153   0.000000
  118  H  3  Z    0.737672   0.720024  -1.070468   0.543163   0.000000
  119  H  3 XX    0.000318  -0.003908   0.003536  -0.002933   0.000000
  120  H  3 YY    0.002141   0.002914  -0.003378   0.004319   0.000000
  121  H  3 ZZ   -0.002459   0.000994  -0.000157  -0.001386   0.000000
  122  H  3 XY   -0.000000  -0.000000  -0.000000  -0.000000  -0.001830
  123  H  3 XZ   -0.000000  -0.000000  -0.000000  -0.000000   0.003489
  124  H  3 YZ    0.002412  -0.004676   0.007323  -0.001541   0.000000
  125  H  3 XX    0.068224   0.068542  -0.058848   0.007131   0.000000
  126  H  3 YY   -0.075232  -0.074215   0.046207   0.001088   0.000000
  127  H  3 ZZ    0.007008   0.005673   0.012640  -0.008219   0.000000
  128  H  3 XY   -0.000000  -0.000000  -0.000000  -0.000000   0.003894
  129  H  3 XZ   -0.000000  -0.000000  -0.000000  -0.000000  -0.008810
  130  H  3 YZ    0.103771   0.096586  -0.098693   0.003321   0.000000
  131  H  3 XXX  -0.000000  -0.000000  -0.000000  -0.000000   0.005389
  132  H  3 YYY  -0.000921  -0.004022   0.001133   0.006822   0.000000
  133  H  3 ZZZ  -0.004202  -0.004646  -0.000155   0.005554   0.000000
  134  H  3 XXY   0.003829   0.002407  -0.004195  -0.000992   0.000000
  135  H  3 XXZ  -0.001593  -0.001079   0.002961  -0.001154   0.000000
  136  H  3 YYX  -0.000000  -0.000000  -0.000000  -0.000000  -0.004835
  137  H  3 YYZ   0.007230   0.007312  -0.002753  -0.006298   0.000000
  138  H  3 ZZX  -0.000000  -0.000000  -0.000000  -0.000000  -0.002396
  139  H  3 ZZY  -0.002593   0.002989   0.002674  -0.008160   0.000000
  140  H  3 XYZ  -0.000000  -0.000000  -0.000000  -0.000000   0.007145

                     16         17         18         19         20
                    0.5990     0.7991     0.8503     0.8551     0.8943
                     A          A          A          A          A   
    1  C  1  S   -0.000000  -0.053211   0.000000  -0.000000   0.000000
    2  C  1  S   -0.000000  -0.044308   0.000000  -0.000000   0.000000
    3  C  1  S   -0.000000  -0.702806   0.000000  -0.000000   0.000000
    4  C  1  S   -0.000000   2.833175  -0.000000  -0.000000   0.000000
    5  C  1  S   -0.000000   5.488061  -0.000000  -0.000000   0.000000
    6  C  1  X   -0.028892   0.000000   0.000000  -0.000000   0.000000
    7  C  1  Y   -0.000000   0.000000  -0.021245  -0.072870   0.000000
    8  C  1  Z   -0.000000   0.036479   0.000000  -0.000000   0.000000
    9  C  1  X   -0.049703   0.000000   0.000000  -0.000000   0.000000
   10  C  1  Y   -0.000000   0.000000   0.103250  -0.004271   0.000000
   11  C  1  Z   -0.000000  -0.017399   0.000000  -0.000000   0.000000
   12  C  1  X   -0.232989   0.000000   0.000000  -0.000000   0.000000
   13  C  1  Y   -0.000000  -0.000000  -2.012936  -4.271133   0.000000
   14  C  1  Z   -0.000000   2.384115  -0.000000  -0.000000   0.000000
   15  C  1  X   -0.166616   0.000000   0.000000  -0.000000   0.000000
   16  C  1  Y   -0.000000  -0.000000  -0.853434  -2.317257   0.000000
   17  C  1  Z   -0.000000   1.802766   0.000000  -0.000000   0.000000
   18  C  1 XX   -0.000000  -0.009922   0.000000  -0.000000   0.000000
   19  C  1 YY   -0.000000   0.000118   0.000000  -0.000000   0.000000
   20  C  1 ZZ   -0.000000   0.009804   0.000000  -0.000000   0.000000
   21  C  1 XY   -0.000000   0.000000   0.000000  -0.000000   0.004817
   22  C  1 XZ    0.045573   0.000000   0.000000  -0.000000   0.000000
   23  C  1 YZ   -0.000000   0.000000   0.019496   0.016512   0.000000
   24  C  1 XX   -0.000000  -0.135253   0.000000  -0.000000   0.000000
   25  C  1 YY   -0.000000   0.157488   0.000000  -0.000000   0.000000
   26  C  1 ZZ   -0.000000  -0.022235   0.000000  -0.000000   0.000000
   27  C  1 XY   -0.000000   0.000000   0.000000  -0.000000   0.098775
   28  C  1 XZ   -0.114741   0.000000   0.000000  -0.000000   0.000000
   29  C  1 YZ   -0.000000   0.000000  -0.275555  -0.380443   0.000000
   30  C  1 XX   -0.000000  -2.068045   0.000000   0.000000   0.000000
   31  C  1 YY   -0.000000   1.842574   0.000000  -0.000000   0.000000
   32  C  1 ZZ   -0.000000   0.225471   0.000000  -0.000000   0.000000
   33  C  1 XY   -0.000000   0.000000   0.000000  -0.000000   1.926682
   34  C  1 XZ    0.794091   0.000000   0.000000  -0.000000   0.000000
   35  C  1 YZ   -0.000000  -0.000000  -2.487180  -2.733474   0.000000
   36  C  1 XXX   0.000318   0.000000   0.000000  -0.000000   0.000000
   37  C  1 YYY  -0.000000   0.000000  -0.007569   0.002288   0.000000
   38  C  1 ZZZ  -0.000000  -0.000197   0.000000  -0.000000   0.000000
   39  C  1 XXY  -0.000000   0.000000  -0.002971   0.000983   0.000000
   40  C  1 XXZ  -0.000000   0.001730   0.000000  -0.000000   0.000000
   41  C  1 YYX   0.003078   0.000000   0.000000  -0.000000   0.000000
   42  C  1 YYZ  -0.000000  -0.001466   0.000000  -0.000000   0.000000
   43  C  1 ZZX  -0.003504   0.000000   0.000000  -0.000000   0.000000
   44  C  1 ZZY  -0.000000   0.000000   0.013126  -0.004052   0.000000
   45  C  1 XYZ  -0.000000   0.000000   0.000000  -0.000000  -0.012883
   46  C  1 XXX  -0.011831   0.000000   0.000000  -0.000000   0.000000
   47  C  1 YYY  -0.000000   0.000000   0.305233  -0.122727   0.000000
   48  C  1 ZZZ  -0.000000  -0.219491   0.000000  -0.000000   0.000000
   49  C  1 XXY  -0.000000   0.000000   0.161613   0.311872   0.000000
   50  C  1 XXZ  -0.000000  -0.226912   0.000000  -0.000000   0.000000
   51  C  1 YYX  -0.020846   0.000000   0.000000  -0.000000   0.000000
   52  C  1 YYZ  -0.000000   0.521390   0.000000  -0.000000   0.000000
   53  C  1 ZZX   0.036719   0.000000   0.000000  -0.000000   0.000000
   54  C  1 ZZY  -0.000000   0.000000  -0.571126  -0.147216   0.000000
   55  C  1 XYZ  -0.000000   0.000000   0.000000  -0.000000   0.390151
   56  C  1XXXX  -0.000000   0.034392   0.000000  -0.000000   0.000000
   57  C  1YYYY  -0.000000  -0.017451   0.000000  -0.000000   0.000000
   58  C  1ZZZZ  -0.000000  -0.039660   0.000000  -0.000000   0.000000
   59  C  1XXXY  -0.000000   0.000000   0.000000  -0.000000  -0.065076
   60  C  1XXXZ  -0.002909   0.000000   0.000000  -0.000000   0.000000
   61  C  1YYYX  -0.000000   0.000000   0.000000  -0.000000   0.028375
   62  C  1YYYZ  -0.000000   0.000000   0.026459  -0.066704   0.000000
   63  C  1ZZZX  -0.000020   0.000000   0.000000  -0.000000   0.000000
   64  C  1ZZZY  -0.000000   0.000000  -0.061812   0.030853   0.000000
   65  C  1XXYY  -0.000000  -0.049714   0.000000  -0.000000   0.000000
   66  C  1XXZZ  -0.000000  -0.010700   0.000000  -0.000000   0.000000
   67  C  1YYZZ  -0.000000   0.080368   0.000000  -0.000000   0.000000
   68  C  1XXYZ  -0.000000   0.000000   0.047431   0.048099   0.000000
   69  C  1YYXZ   0.003929   0.000000   0.000000  -0.000000   0.000000
   70  C  1ZZXY  -0.000000   0.000000   0.000000  -0.000000   0.049239
   71  H  2  S   -0.000000   0.009202  -0.020509  -0.022278   0.000000
   72  H  2  S   -0.000000  -0.264276   0.214157   0.111860   0.000000
   73  H  2  S   -0.000000  -4.276606   3.372310   5.263823   0.000000
   74  H  2  S   -0.000000  -0.879089   0.109826   0.441698   0.000000
   75  H  2  X    0.026252   0.000000   0.000000  -0.000000  -0.023059
   76  H  2  Y   -0.000000  -0.024967   0.005111   0.053911   0.000000
   77  H  2  Z   -0.000000  -0.029125   0.033663   0.002168   0.000000
   78  H  2  X   -0.089121   0.000000   0.000000  -0.000000   0.068758
   79  H  2  Y   -0.000000   0.266167  -0.173496  -0.361261   0.000000
   80  H  2  Z   -0.000000   0.263152  -0.196087  -0.128159   0.000000
   81  H  2  X    0.357096   0.000000   0.000000  -0.000000  -1.733329
   82  H  2  Y   -0.000000   0.399065  -1.174143  -0.165702   0.000000
   83  H  2  Z   -0.000000   0.515762   0.565478  -1.425313   0.000000
   84  H  2 XX   -0.000000   0.004607  -0.010281  -0.007852   0.000000
   85  H  2 YY   -0.000000  -0.008864   0.000514   0.012844   0.000000
   86  H  2 ZZ   -0.000000   0.004257   0.009768  -0.004992   0.000000
   87  H  2 XY   -0.003830   0.000000   0.000000  -0.000000  -0.011895
   88  H  2 XZ   -0.000400   0.000000   0.000000  -0.000000  -0.013427
   89  H  2 YZ   -0.000000  -0.014615   0.007443   0.006902   0.000000
   90  H  2 XX   -0.000000   0.039884   0.013412  -0.055639   0.000000
   91  H  2 YY   -0.000000   0.017093   0.165357  -0.042308   0.000000
   92  H  2 ZZ   -0.000000  -0.056977  -0.178769   0.097947   0.000000
   93  H  2 XY    0.008703   0.000000   0.000000  -0.000000   0.196687
   94  H  2 XZ   -0.006062   0.000000   0.000000  -0.000000   0.173046
   95  H  2 YZ   -0.000000  -0.064092   0.013568   0.111314   0.000000
   96  H  2 XXX  -0.004830   0.000000   0.000000  -0.000000   0.017531
   97  H  2 YYY  -0.000000  -0.004021  -0.023678   0.013906   0.000000
   98  H  2 ZZZ  -0.000000  -0.001223   0.013570  -0.011170   0.000000
   99  H  2 XXY  -0.000000   0.002150   0.000309  -0.002305   0.000000
  100  H  2 XXZ  -0.000000   0.003969  -0.007315   0.008561   0.000000
  101  H  2 YYX   0.002859   0.000000   0.000000  -0.000000  -0.018007
  102  H  2 YYZ  -0.000000  -0.002328  -0.010891   0.006425   0.000000
  103  H  2 ZZX   0.003622   0.000000   0.000000  -0.000000  -0.005513
  104  H  2 ZZY  -0.000000   0.003244   0.031459  -0.016352   0.000000
  105  H  2 XYZ   0.007814   0.000000   0.000000  -0.000000  -0.028623
  106  H  3  S   -0.000000   0.009202   0.020509   0.022278   0.000000
  107  H  3  S   -0.000000  -0.264276  -0.214157  -0.111860   0.000000
  108  H  3  S   -0.000000  -4.276606  -3.372310  -5.263823   0.000000
  109  H  3  S   -0.000000  -0.879089  -0.109826  -0.441698   0.000000
  110  H  3  X    0.026252   0.000000   0.000000  -0.000000   0.023059
  111  H  3  Y   -0.000000   0.024967   0.005111   0.053911   0.000000
  112  H  3  Z   -0.000000  -0.029125  -0.033663  -0.002168   0.000000
  113  H  3  X   -0.089121   0.000000   0.000000  -0.000000  -0.068758
  114  H  3  Y   -0.000000  -0.266167  -0.173496  -0.361261   0.000000
  115  H  3  Z   -0.000000   0.263152   0.196087   0.128159   0.000000
  116  H  3  X    0.357096   0.000000   0.000000  -0.000000   1.733329
  117  H  3  Y   -0.000000  -0.399065  -1.174143  -0.165702   0.000000
  118  H  3  Z   -0.000000   0.515762  -0.565478   1.425313   0.000000
  119  H  3 XX   -0.000000   0.004607   0.010281   0.007852   0.000000
  120  H  3 YY   -0.000000  -0.008864  -0.000514  -0.012844   0.000000
  121  H  3 ZZ   -0.000000   0.004257  -0.009768   0.004992   0.000000
  122  H  3 XY    0.003830   0.000000   0.000000  -0.000000  -0.011895
  123  H  3 XZ   -0.000400   0.000000   0.000000  -0.000000   0.013427
  124  H  3 YZ   -0.000000   0.014615   0.007443   0.006902   0.000000
  125  H  3 XX   -0.000000   0.039884  -0.013412   0.055639   0.000000
  126  H  3 YY   -0.000000   0.017093  -0.165357   0.042308   0.000000
  127  H  3 ZZ   -0.000000  -0.056977   0.178769  -0.097947   0.000000
  128  H  3 XY   -0.008703   0.000000   0.000000  -0.000000   0.196687
  129  H  3 XZ   -0.006062   0.000000   0.000000  -0.000000  -0.173046
  130  H  3 YZ   -0.000000   0.064092   0.013568   0.111314   0.000000
  131  H  3 XXX  -0.004830   0.000000   0.000000  -0.000000  -0.017531
  132  H  3 YYY  -0.000000   0.004021  -0.023678   0.013906   0.000000
  133  H  3 ZZZ  -0.000000  -0.001223  -0.013570   0.011170   0.000000
  134  H  3 XXY  -0.000000  -0.002150   0.000309  -0.002305   0.000000
  135  H  3 XXZ  -0.000000   0.003969   0.007315  -0.008561   0.000000
  136  H  3 YYX   0.002859   0.000000   0.000000  -0.000000   0.018007
  137  H  3 YYZ  -0.000000  -0.002328   0.010891  -0.006425   0.000000
  138  H  3 ZZX   0.003622   0.000000   0.000000  -0.000000   0.005513
  139  H  3 ZZY  -0.000000  -0.003244   0.031459  -0.016352   0.000000
  140  H  3 XYZ  -0.007814   0.000000   0.000000  -0.000000  -0.028623

                     21         22         23         24         25
                    0.9137     0.9884     1.1333     1.1400     1.4371
                     A          A          A          A          A   
    1  C  1  S   -0.000000  -0.001230   0.000000  -0.020185   0.052383
    2  C  1  S   -0.000000   0.016522   0.000000   0.144547   0.050143
    3  C  1  S   -0.000000  -0.294136   0.000000  -1.308330  -0.814689
    4  C  1  S   -0.000000   2.727425  -0.000000  12.799967   6.367460
    5  C  1  S   -0.000000   3.989198  -0.000000   9.105527   3.515676
    6  C  1  X   -0.052917   0.000000   0.000000  -0.000000   0.000000
    7  C  1  Y   -0.000000   0.000000   0.099818  -0.000000   0.000000
    8  C  1  Z   -0.000000   0.068260   0.000000   0.049187  -0.095886
    9  C  1  X   -0.027794   0.000000   0.000000  -0.000000   0.000000
   10  C  1  Y   -0.000000   0.000000   0.497502  -0.000000   0.000000
   11  C  1  Z   -0.000000   0.114880   0.000000   0.385467   0.130920
   12  C  1  X   -1.419118   0.000000   0.000000  -0.000000   0.000000
   13  C  1  Y   -0.000000   0.000000   9.083519   0.000000   0.000000
   14  C  1  Z   -0.000000   3.225576  -0.000000   6.564754   3.399770
   15  C  1  X   -0.769114   0.000000   0.000000  -0.000000   0.000000
   16  C  1  Y   -0.000000   0.000000   2.958683   0.000000   0.000000
   17  C  1  Z   -0.000000   2.004150  -0.000000   2.139788   1.013108
   18  C  1 XX   -0.000000  -0.005312   0.000000   0.037249   0.045051
   19  C  1 YY   -0.000000   0.009019   0.000000  -0.031758  -0.032158
   20  C  1 ZZ   -0.000000  -0.003707   0.000000  -0.005491  -0.012893
   21  C  1 XY   -0.000000   0.000000   0.000000  -0.000000   0.000000
   22  C  1 XZ   -0.009019   0.000000   0.000000  -0.000000   0.000000
   23  C  1 YZ   -0.000000   0.000000  -0.045316  -0.000000   0.000000
   24  C  1 XX   -0.000000  -0.114559   0.000000  -0.550588  -0.775839
   25  C  1 YY   -0.000000  -0.098561   0.000000   0.482524   0.653385
   26  C  1 ZZ   -0.000000   0.213120   0.000000   0.068064   0.122455
   27  C  1 XY   -0.000000   0.000000   0.000000  -0.000000   0.000000
   28  C  1 XZ   -0.064499   0.000000   0.000000  -0.000000   0.000000
   29  C  1 YZ   -0.000000   0.000000   0.858626  -0.000000   0.000000
   30  C  1 XX   -0.000000  -0.917600   0.000000  -1.925770  -0.672275
   31  C  1 YY   -0.000000  -1.972913  -0.000000   2.103597   0.570781
   32  C  1 ZZ   -0.000000   2.890512   0.000000  -0.177828   0.101494
   33  C  1 XY   -0.000000   0.000000   0.000000  -0.000000   0.000000
   34  C  1 XZ   -1.619521   0.000000   0.000000  -0.000000   0.000000
   35  C  1 YZ   -0.000000   0.000000   3.493708   0.000000   0.000000
   36  C  1 XXX  -0.009032   0.000000   0.000000  -0.000000   0.000000
   37  C  1 YYY  -0.000000   0.000000  -0.005978  -0.000000   0.000000
   38  C  1 ZZZ  -0.000000  -0.026675   0.000000  -0.023914  -0.031542
   39  C  1 XXY  -0.000000   0.000000  -0.026461  -0.000000   0.000000
   40  C  1 XXZ  -0.000000   0.000767   0.000000  -0.024687  -0.031505
   41  C  1 YYX   0.004003   0.000000   0.000000  -0.000000   0.000000
   42  C  1 YYZ  -0.000000   0.035020   0.000000   0.056771   0.073823
   43  C  1 ZZX   0.008114   0.000000   0.000000  -0.000000   0.000000
   44  C  1 ZZY  -0.000000   0.000000   0.034481  -0.000000   0.000000
   45  C  1 XYZ  -0.000000   0.000000   0.000000  -0.000000   0.000000
   46  C  1 XXX   0.268825   0.000000   0.000000  -0.000000   0.000000
   47  C  1 YYY  -0.000000   0.000000   0.062807  -0.000000   0.000000
   48  C  1 ZZZ  -0.000000   0.374660   0.000000  -0.223160  -0.153730
   49  C  1 XXY  -0.000000   0.000000  -0.247908  -0.000000   0.000000
   50  C  1 XXZ  -0.000000  -0.204917   0.000000  -0.203471  -0.316979
   51  C  1 YYX  -0.210768   0.000000   0.000000  -0.000000   0.000000
   52  C  1 YYZ  -0.000000  -0.297742   0.000000   0.502872   0.523230
   53  C  1 ZZX  -0.149899   0.000000   0.000000  -0.000000   0.000000
   54  C  1 ZZY  -0.000000   0.000000   0.163644  -0.000000   0.000000
   55  C  1 XYZ  -0.000000   0.000000   0.000000  -0.000000   0.000000
   56  C  1XXXX  -0.000000   0.008973   0.000000   0.017222   0.023510
   57  C  1YYYY  -0.000000  -0.035122   0.000000  -0.009396  -0.022230
   58  C  1ZZZZ  -0.000000   0.012825   0.000000  -0.024218  -0.023830
   59  C  1XXXY  -0.000000   0.000000   0.000000  -0.000000   0.000000
   60  C  1XXXZ   0.044892   0.000000   0.000000  -0.000000   0.000000
   61  C  1YYYX  -0.000000   0.000000   0.000000  -0.000000   0.000000
   62  C  1YYYZ  -0.000000   0.000000   0.023151  -0.000000   0.000000
   63  C  1ZZZX   0.000759   0.000000   0.000000  -0.000000   0.000000
   64  C  1ZZZY  -0.000000   0.000000  -0.014002  -0.000000   0.000000
   65  C  1XXYY  -0.000000   0.034230   0.000000  -0.028145  -0.022055
   66  C  1XXZZ  -0.000000  -0.049993   0.000000  -0.002108  -0.019244
   67  C  1YYZZ  -0.000000   0.027465   0.000000   0.044649   0.061104
   68  C  1XXYZ  -0.000000   0.000000  -0.012274  -0.000000   0.000000
   69  C  1YYXZ  -0.061247   0.000000   0.000000  -0.000000   0.000000
   70  C  1ZZXY  -0.000000   0.000000   0.000000  -0.000000   0.000000
   71  H  2  S   -0.000000  -0.003259  -0.011535   0.000562   0.064816
   72  H  2  S   -0.000000   0.217069   0.092283  -0.062582   0.764252
   73  H  2  S   -0.000000  -3.149437 -10.379530  -9.567512  -5.803754
   74  H  2  S   -0.000000  -0.911603  -2.301790  -2.162944  -0.206496
   75  H  2  X    0.031511   0.000000   0.000000  -0.000000   0.000000
   76  H  2  Y   -0.000000  -0.014590  -0.007706  -0.027358  -0.084270
   77  H  2  Z   -0.000000  -0.021496  -0.018741  -0.013522  -0.044298
   78  H  2  X   -0.122258   0.000000   0.000000  -0.000000   0.000000
   79  H  2  Y   -0.000000   0.055910   0.121559   0.269386   0.587409
   80  H  2  Z   -0.000000   0.084867   0.169699   0.176868   0.342001
   81  H  2  X    1.819841   0.000000   0.000000  -0.000000   0.000000
   82  H  2  Y   -0.000000   2.381447   4.288433   3.511503   1.281223
   83  H  2  Z   -0.000000  -1.098691   3.395596   3.483321   1.186786
   84  H  2 XX   -0.000000  -0.011026  -0.013114  -0.008594   0.002419
   85  H  2 YY   -0.000000   0.030408   0.011966   0.003804   0.003174
   86  H  2 ZZ   -0.000000  -0.019382   0.001148   0.004790  -0.005594
   87  H  2 XY    0.016961   0.000000   0.000000  -0.000000   0.000000
   88  H  2 XZ    0.008285   0.000000   0.000000  -0.000000   0.000000
   89  H  2 YZ   -0.000000  -0.005789   0.021747   0.020219  -0.007799
   90  H  2 XX   -0.000000   0.144817   0.282386   0.253218   0.192045
   91  H  2 YY   -0.000000  -0.385270  -0.223504  -0.151543  -0.182291
   92  H  2 ZZ   -0.000000   0.240453  -0.058882  -0.101674  -0.009754
   93  H  2 XY   -0.202169   0.000000   0.000000  -0.000000   0.000000
   94  H  2 XZ   -0.134349   0.000000   0.000000  -0.000000   0.000000
   95  H  2 YZ   -0.000000   0.017041  -0.486642  -0.480493  -0.286550
   96  H  2 XXX  -0.022824   0.000000   0.000000  -0.000000   0.000000
   97  H  2 YYY  -0.000000   0.036178   0.005572  -0.012720  -0.006175
   98  H  2 ZZZ  -0.000000  -0.007440  -0.016365  -0.012708  -0.008272
   99  H  2 XXY  -0.000000  -0.020087  -0.032550  -0.018632  -0.022606
  100  H  2 XXZ  -0.000000  -0.003578  -0.020917  -0.022297  -0.020636
  101  H  2 YYX   0.021318   0.000000   0.000000  -0.000000   0.000000
  102  H  2 YYZ  -0.000000   0.013559   0.042872   0.039347   0.031733
  103  H  2 ZZX   0.009303   0.000000   0.000000  -0.000000   0.000000
  104  H  2 ZZY  -0.000000  -0.028450   0.025075   0.035697   0.030891
  105  H  2 XYZ   0.022592   0.000000   0.000000  -0.000000   0.000000
  106  H  3  S   -0.000000  -0.003259   0.011535   0.000562   0.064816
  107  H  3  S   -0.000000   0.217069  -0.092283  -0.062582   0.764252
  108  H  3  S   -0.000000  -3.149437  10.379530  -9.567512  -5.803754
  109  H  3  S   -0.000000  -0.911603   2.301790  -2.162944  -0.206496
  110  H  3  X    0.031511   0.000000   0.000000  -0.000000   0.000000
  111  H  3  Y   -0.000000   0.014590  -0.007706   0.027358   0.084270
  112  H  3  Z   -0.000000  -0.021496   0.018741  -0.013522  -0.044298
  113  H  3  X   -0.122258   0.000000   0.000000  -0.000000   0.000000
  114  H  3  Y   -0.000000  -0.055910   0.121559  -0.269386  -0.587409
  115  H  3  Z   -0.000000   0.084867  -0.169699   0.176868   0.342001
  116  H  3  X    1.819841   0.000000   0.000000  -0.000000   0.000000
  117  H  3  Y   -0.000000  -2.381447   4.288433  -3.511503  -1.281223
  118  H  3  Z   -0.000000  -1.098691  -3.395596   3.483321   1.186786
  119  H  3 XX   -0.000000  -0.011026   0.013114  -0.008594   0.002419
  120  H  3 YY   -0.000000   0.030408  -0.011966   0.003804   0.003174
  121  H  3 ZZ   -0.000000  -0.019382  -0.001148   0.004790  -0.005594
  122  H  3 XY   -0.016961   0.000000   0.000000  -0.000000   0.000000
  123  H  3 XZ    0.008285   0.000000   0.000000  -0.000000   0.000000
  124  H  3 YZ   -0.000000   0.005789   0.021747  -0.020219   0.007799
  125  H  3 XX   -0.000000   0.144817  -0.282386   0.253218   0.192045
  126  H  3 YY   -0.000000  -0.385270   0.223504  -0.151543  -0.182291
  127  H  3 ZZ   -0.000000   0.240453   0.058882  -0.101674  -0.009754
  128  H  3 XY    0.202169   0.000000   0.000000  -0.000000   0.000000
  129  H  3 XZ   -0.134349   0.000000   0.000000  -0.000000   0.000000
  130  H  3 YZ   -0.000000  -0.017041  -0.486642   0.480493   0.286550
  131  H  3 XXX  -0.022824   0.000000   0.000000  -0.000000   0.000000
  132  H  3 YYY  -0.000000  -0.036178   0.005572   0.012720   0.006175
  133  H  3 ZZZ  -0.000000  -0.007440   0.016365  -0.012708  -0.008272
  134  H  3 XXY  -0.000000   0.020087  -0.032550   0.018632   0.022606
  135  H  3 XXZ  -0.000000  -0.003578   0.020917  -0.022297  -0.020636
  136  H  3 YYX   0.021318   0.000000   0.000000  -0.000000   0.000000
  137  H  3 YYZ  -0.000000   0.013559  -0.042872   0.039347   0.031733
  138  H  3 ZZX   0.009303   0.000000   0.000000  -0.000000   0.000000
  139  H  3 ZZY  -0.000000   0.028450   0.025075  -0.035697  -0.030891
  140  H  3 XYZ  -0.022592   0.000000   0.000000  -0.000000   0.000000

                     26         27         28         29         30
                    1.4535     1.5396     1.6379     1.7923     1.8533
                     A          A          A          A          A   
    1  C  1  S    0.000000  -0.000000   0.012787   0.000000  -0.006656
    2  C  1  S    0.000000  -0.000000   0.164430   0.000000   0.012436
    3  C  1  S    0.000000  -0.000000  -0.662254   0.000000  -0.388350
    4  C  1  S   -0.000000  -0.000000   5.740588   0.000000   2.161432
    5  C  1  S   -0.000000  -0.000000   4.822041   0.000000   1.654461
    6  C  1  X    0.000000  -0.187851   0.000000  -0.003263   0.000000
    7  C  1  Y   -0.089878  -0.000000   0.000000   0.000000  -0.000000
    8  C  1  Z    0.000000  -0.000000  -0.161673   0.000000  -0.056230
    9  C  1  X    0.000000  -1.291234   0.000000   0.005560   0.000000
   10  C  1  Y    0.699265  -0.000000   0.000000   0.000000  -0.000000
   11  C  1  Z    0.000000  -0.000000  -1.234298   0.000000  -0.206454
   12  C  1  X    0.000000   2.526452   0.000000  -0.167320   0.000000
   13  C  1  Y    1.778415  -0.000000   0.000000   0.000000   0.000000
   14  C  1  Z   -0.000000  -0.000000   6.082705   0.000000   1.422384
   15  C  1  X    0.000000  -0.607296   0.000000  -0.038314   0.000000
   16  C  1  Y    0.010974  -0.000000   0.000000   0.000000   0.000000
   17  C  1  Z    0.000000  -0.000000   0.719485   0.000000   0.537642
   18  C  1 XX    0.000000  -0.000000   0.060373   0.000000   0.038110
   19  C  1 YY    0.000000  -0.000000  -0.018185   0.000000  -0.020611
   20  C  1 ZZ    0.000000  -0.000000  -0.042187   0.000000  -0.017499
   21  C  1 XY    0.000000  -0.000000   0.000000   0.000000   0.000000
   22  C  1 XZ    0.000000  -0.037221   0.000000  -0.010232   0.000000
   23  C  1 YZ   -0.000755  -0.000000   0.000000   0.000000  -0.000000
   24  C  1 XX    0.000000  -0.000000  -0.350980   0.000000  -0.396500
   25  C  1 YY    0.000000  -0.000000   0.097016   0.000000  -0.189030
   26  C  1 ZZ    0.000000  -0.000000   0.253964   0.000000   0.585531
   27  C  1 XY    0.000000  -0.000000   0.000000   0.000000   0.000000
   28  C  1 XZ    0.000000   0.201947   0.000000   0.160015   0.000000
   29  C  1 YZ    0.925393  -0.000000   0.000000   0.000000   0.000000
   30  C  1 XX    0.000000  -0.000000  -1.408221   0.000000  -0.233650
   31  C  1 YY    0.000000  -0.000000   0.496424   0.000000   0.590160
   32  C  1 ZZ    0.000000  -0.000000   0.911796   0.000000  -0.356510
   33  C  1 XY    0.000000  -0.000000   0.000000   0.000000   0.000000
   34  C  1 XZ    0.000000   0.394828   0.000000  -0.380931   0.000000
   35  C  1 YZ   -0.220323  -0.000000   0.000000   0.000000   0.000000
   36  C  1 XXX   0.000000  -0.035643   0.000000   0.021986   0.000000
   37  C  1 YYY  -0.021405  -0.000000   0.000000   0.000000   0.000000
   38  C  1 ZZZ   0.000000  -0.000000   0.024292   0.000000  -0.025432
   39  C  1 XXY  -0.032857  -0.000000   0.000000   0.000000  -0.000000
   40  C  1 XXZ   0.000000  -0.000000  -0.050706   0.000000   0.030873
   41  C  1 YYX   0.000000   0.028412   0.000000   0.052140   0.000000
   42  C  1 YYZ   0.000000  -0.000000   0.018115   0.000000   0.003247
   43  C  1 ZZX   0.000000   0.019407   0.000000  -0.081637   0.000000
   44  C  1 ZZY   0.061576  -0.000000   0.000000   0.000000   0.000000
   45  C  1 XYZ   0.000000  -0.000000   0.000000   0.000000   0.000000
   46  C  1 XXX   0.000000  -0.128188   0.000000  -0.160615   0.000000
   47  C  1 YYY   0.089392  -0.000000   0.000000   0.000000  -0.000000
   48  C  1 ZZZ   0.000000  -0.000000  -0.275148   0.000000   0.017551
   49  C  1 XXY  -0.231476  -0.000000   0.000000   0.000000  -0.000000
   50  C  1 XXZ   0.000000  -0.000000  -0.074185   0.000000  -0.485489
   51  C  1 YYX   0.000000   0.134034   0.000000  -0.485565   0.000000
   52  C  1 YYZ   0.000000  -0.000000   0.443334   0.000000   0.461943
   53  C  1 ZZX   0.000000   0.037949   0.000000   0.701052   0.000000
   54  C  1 ZZY   0.111543  -0.000000   0.000000   0.000000   0.000000
   55  C  1 XYZ   0.000000  -0.000000   0.000000   0.000000   0.000000
   56  C  1XXXX   0.000000  -0.000000   0.052869   0.000000   0.013135
   57  C  1YYYY   0.000000  -0.000000  -0.069122   0.000000  -0.009827
   58  C  1ZZZZ   0.000000  -0.000000  -0.061765   0.000000  -0.048056
   59  C  1XXXY   0.000000  -0.000000   0.000000   0.000000   0.000000
   60  C  1XXXZ   0.000000  -0.067018   0.000000   0.010414   0.000000
   61  C  1YYYX   0.000000  -0.000000   0.000000   0.000000   0.000000
   62  C  1YYYZ  -0.016906  -0.000000   0.000000   0.000000   0.000000
   63  C  1ZZZX   0.000000  -0.006955   0.000000  -0.002053   0.000000
   64  C  1ZZZY   0.005757  -0.000000   0.000000   0.000000  -0.000000
   65  C  1XXYY   0.000000  -0.000000  -0.039973   0.000000  -0.045113
   66  C  1XXZZ   0.000000  -0.000000  -0.052896   0.000000   0.022040
   67  C  1YYZZ   0.000000  -0.000000   0.161394   0.000000   0.062375
   68  C  1XXYZ   0.014958  -0.000000   0.000000   0.000000  -0.000000
   69  C  1YYXZ   0.000000   0.099245   0.000000  -0.011217   0.000000
   70  C  1ZZXY   0.000000  -0.000000   0.000000   0.000000   0.000000
   71  H  2  S    0.032589  -0.000000   0.034501   0.000000   0.020761
   72  H  2  S    1.080306  -0.000000  -0.504863   0.000000  -0.216007
   73  H  2  S   -3.693678  -0.000000  -4.953132   0.000000  -1.753243
   74  H  2  S    0.660456  -0.000000  -0.827330   0.000000  -0.289429
   75  H  2  X    0.000000   0.025396   0.000000  -0.007794   0.000000
   76  H  2  Y   -0.049487  -0.000000  -0.035431   0.000000   0.033179
   77  H  2  Z   -0.054241  -0.000000  -0.011910   0.000000  -0.060958
   78  H  2  X    0.000000  -0.140997   0.000000   0.046362   0.000000
   79  H  2  Y    0.236523  -0.000000   0.436969   0.000000  -0.060718
   80  H  2  Z    0.291347  -0.000000   0.297121   0.000000   0.520322
   81  H  2  X    0.000000  -0.527399   0.000000   0.128721   0.000000
   82  H  2  Y    1.279945  -0.000000   1.779028   0.000000   0.571539
   83  H  2  Z    0.766984  -0.000000   0.639133   0.000000   0.137188
   84  H  2 XX    0.001083  -0.000000  -0.002092   0.000000   0.034680
   85  H  2 YY    0.002478  -0.000000   0.006411   0.000000  -0.041514
   86  H  2 ZZ   -0.003561  -0.000000  -0.004319   0.000000   0.006833
   87  H  2 XY    0.000000  -0.008439   0.000000   0.037270   0.000000
   88  H  2 XZ    0.000000  -0.008697   0.000000  -0.037152   0.000000
   89  H  2 YZ    0.010909  -0.000000  -0.024748   0.000000   0.012744
   90  H  2 XX    0.175308  -0.000000   0.149435   0.000000  -0.183185
   91  H  2 YY   -0.173210  -0.000000  -0.255464   0.000000   0.270147
   92  H  2 ZZ   -0.002098  -0.000000   0.106028   0.000000  -0.086962
   93  H  2 XY    0.000000   0.216525   0.000000  -0.247406   0.000000
   94  H  2 XZ    0.000000   0.192744   0.000000   0.222155   0.000000
   95  H  2 YZ   -0.377398  -0.000000  -0.054856   0.000000  -0.238090
   96  H  2 XXX   0.000000   0.033216   0.000000  -0.003305   0.000000
   97  H  2 YYY   0.015575  -0.000000   0.023823   0.000000   0.008347
   98  H  2 ZZZ  -0.027286  -0.000000  -0.017825   0.000000  -0.013323
   99  H  2 XXY  -0.045495  -0.000000   0.001825   0.000000  -0.000381
  100  H  2 XXZ  -0.027806  -0.000000   0.019974   0.000000   0.001403
  101  H  2 YYX   0.000000  -0.028713   0.000000  -0.019033   0.000000
  102  H  2 YYZ   0.064414  -0.000000   0.003942   0.000000   0.016472
  103  H  2 ZZX   0.000000  -0.015851   0.000000   0.023467   0.000000
  104  H  2 ZZY   0.024598  -0.000000  -0.033787   0.000000  -0.010818
  105  H  2 XYZ   0.000000  -0.038797   0.000000   0.002678   0.000000
  106  H  3  S   -0.032589  -0.000000   0.034501   0.000000   0.020761
  107  H  3  S   -1.080306  -0.000000  -0.504863   0.000000  -0.216007
  108  H  3  S    3.693678  -0.000000  -4.953132   0.000000  -1.753243
  109  H  3  S   -0.660456  -0.000000  -0.827330   0.000000  -0.289429
  110  H  3  X    0.000000   0.025396   0.000000  -0.007794   0.000000
  111  H  3  Y   -0.049487  -0.000000   0.035431   0.000000  -0.033179
  112  H  3  Z    0.054241  -0.000000  -0.011910   0.000000  -0.060958
  113  H  3  X    0.000000  -0.140997   0.000000   0.046362   0.000000
  114  H  3  Y    0.236523  -0.000000  -0.436969   0.000000   0.060718
  115  H  3  Z   -0.291347  -0.000000   0.297121   0.000000   0.520322
[...]
   27  C  1 XY    0.000000  -0.000000   0.000000  -0.000000   0.000000
   28  C  1 XZ    0.000000  -0.000000   0.000000  -0.000000   0.000000
   29  C  1 YZ    0.000000  -1.043007   0.000000   4.249311   0.000000
   30  C  1 XX   -0.291851  -0.000000  -1.400174  -0.000000   0.181341
   31  C  1 YY   -0.141928  -0.000000   0.970514  -0.000000   0.004345
   32  C  1 ZZ    0.433779  -0.000000   0.429660  -0.000000  -0.185686
   33  C  1 XY    0.000000  -0.000000   0.000000  -0.000000   0.000000
   34  C  1 XZ    0.000000  -0.000000   0.000000  -0.000000   0.000000
   35  C  1 YZ    0.000000  -0.362916   0.000000   1.837842   0.000000
   36  C  1 XXX   0.000000  -0.000000   0.000000  -0.000000   0.000000
   37  C  1 YYY   0.000000   0.871634   0.000000  -0.054864   0.000000
   38  C  1 ZZZ   0.329705  -0.000000  -0.440722  -0.000000  -0.210856
   39  C  1 XXY   0.000000  -0.179810   0.000000  -0.778175   0.000000
   40  C  1 XXZ  -0.063931  -0.000000  -0.497858  -0.000000  -0.276516
   41  C  1 YYX   0.000000  -0.000000   0.000000  -0.000000   0.000000
   42  C  1 YYZ  -0.378415  -0.000000   1.089148  -0.000000   0.559409
   43  C  1 ZZX   0.000000  -0.000000   0.000000  -0.000000   0.000000
   44  C  1 ZZY   0.000000  -0.989610   0.000000   0.851783   0.000000
   45  C  1 XYZ   0.000000  -0.000000   0.000000  -0.000000   0.000000
   46  C  1 XXX   0.000000  -0.000000   0.000000  -0.000000   0.000000
   47  C  1 YYY   0.000000   1.005755   0.000000  -0.145364   0.000000
   48  C  1 ZZZ   0.689464  -0.000000  -0.564661  -0.000000  -0.106317
   49  C  1 XXY   0.000000   0.080673   0.000000  -0.773911   0.000000
   50  C  1 XXZ  -0.074078  -0.000000  -0.887198  -0.000000   0.120533
   51  C  1 YYX   0.000000  -0.000000   0.000000  -0.000000   0.000000
   52  C  1 YYZ  -0.850935  -0.000000   1.644770  -0.000000   0.022106
   53  C  1 ZZX   0.000000  -0.000000   0.000000  -0.000000   0.000000
   54  C  1 ZZY   0.000000  -1.430036   0.000000   0.968936   0.000000
   55  C  1 XYZ   0.000000  -0.000000   0.000000  -0.000000   0.000000
   56  C  1XXXX  -0.142426  -0.000000   0.354377  -0.000000   0.044388
   57  C  1YYYY   0.094444  -0.000000  -0.258999  -0.000000  -0.038189
   58  C  1ZZZZ   0.409026  -0.000000  -0.380113  -0.000000  -0.092981
   59  C  1XXXY   0.000000  -0.000000   0.000000  -0.000000   0.000000
   60  C  1XXXZ   0.000000  -0.000000   0.000000  -0.000000   0.000000
   61  C  1YYYX   0.000000  -0.000000   0.000000  -0.000000   0.000000
   62  C  1YYYZ   0.000000   1.029164   0.000000   0.313098   0.000000
   63  C  1ZZZX   0.000000  -0.000000   0.000000  -0.000000   0.000000
   64  C  1ZZZY   0.000000  -1.275004   0.000000   0.074145   0.000000
   65  C  1XXYY   0.401395  -0.000000  -0.417627  -0.000000  -0.087112
   66  C  1XXZZ  -0.151206  -0.000000  -0.204878  -0.000000   0.009138
   67  C  1YYZZ  -0.567297  -0.000000   0.872591  -0.000000   0.154195
   68  C  1XXYZ   0.000000   0.329829   0.000000  -0.519541   0.000000
   69  C  1YYXZ   0.000000  -0.000000   0.000000  -0.000000   0.000000
   70  C  1ZZXY   0.000000  -0.000000   0.000000  -0.000000   0.000000
   71  H  2  S    0.497446   0.044572   1.051255   1.190646   0.333543
   72  H  2  S    0.262541   0.777572  -3.974541  -3.853579  -0.708994
   73  H  2  S   -3.179539  -0.944055  -5.621185  -6.020262  -0.936886
   74  H  2  S   -0.194396   0.044276  -0.300123  -0.093486  -0.052421
   75  H  2  X    0.000000  -0.000000   0.000000  -0.000000   0.000000
   76  H  2  Y   -1.144919  -0.167468  -0.115312  -0.405884  -0.193662
   77  H  2  Z   -0.411531  -0.593385  -0.074905  -0.285253  -0.220417
   78  H  2  X    0.000000  -0.000000   0.000000  -0.000000   0.000000
   79  H  2  Y    1.721132  -0.590440   2.086111   2.875094   0.923234
   80  H  2  Z    0.166886   1.411464   1.719051   2.086938   0.924053
   81  H  2  X    0.000000  -0.000000   0.000000  -0.000000   0.000000
   82  H  2  Y    1.340093   0.336033   1.631935   1.774755   0.330773
   83  H  2  Z    0.621147   0.566873   1.131236   1.408804   0.440346
   84  H  2 XX   -0.100648  -0.168899   0.386067   0.393677   0.101277
   85  H  2 YY   -0.021606   0.711782  -0.282360  -0.355397  -0.089873
   86  H  2 ZZ    0.122255  -0.542883  -0.103707  -0.038280  -0.011404
   87  H  2 XY    0.000000  -0.000000   0.000000  -0.000000   0.000000
   88  H  2 XZ    0.000000  -0.000000   0.000000  -0.000000   0.000000
   89  H  2 YZ    0.373420  -0.071145  -0.727190  -0.605579  -0.162059
   90  H  2 XX    0.628355   0.414393   0.239170   0.577245   0.375593
   91  H  2 YY   -1.002529   0.292251  -0.220653  -0.563806  -0.206328
   92  H  2 ZZ    0.374173  -0.706644  -0.018517  -0.013439  -0.169265
   93  H  2 XY    0.000000  -0.000000   0.000000  -0.000000   0.000000
   94  H  2 XZ    0.000000  -0.000000   0.000000  -0.000000   0.000000
   95  H  2 YZ   -0.763340  -0.553613  -0.321876  -1.008154  -0.748326
   96  H  2 XXX   0.000000  -0.000000   0.000000  -0.000000   0.000000
   97  H  2 YYY   0.390962  -0.460161  -0.006507   0.040113  -0.031044
   98  H  2 ZZZ  -0.166909   0.207699  -0.074441  -0.186690  -0.127011
   99  H  2 XXY  -0.346540  -0.098745  -0.125610  -0.272585  -0.189108
  100  H  2 XXZ  -0.150187  -0.194914  -0.080745  -0.228092  -0.172119
  101  H  2 YYX   0.000000  -0.000000   0.000000  -0.000000   0.000000
  102  H  2 YYZ   0.374119  -0.083743   0.180618   0.478564   0.342522
  103  H  2 ZZX   0.000000  -0.000000   0.000000  -0.000000   0.000000
  104  H  2 ZZY  -0.177991   0.716117   0.134340   0.218768   0.230759
  105  H  2 XYZ   0.000000  -0.000000   0.000000  -0.000000   0.000000
  106  H  3  S    0.497446  -0.044572   1.051255  -1.190646   0.333543
  107  H  3  S    0.262541  -0.777572  -3.974541   3.853579  -0.708994
  108  H  3  S   -3.179539   0.944055  -5.621185   6.020262  -0.936886
  109  H  3  S   -0.194396  -0.044276  -0.300123   0.093486  -0.052421
  110  H  3  X    0.000000  -0.000000   0.000000  -0.000000   0.000000
  111  H  3  Y    1.144919  -0.167468   0.115312  -0.405884   0.193662
  112  H  3  Z   -0.411531   0.593385  -0.074905   0.285253  -0.220417
  113  H  3  X    0.000000  -0.000000   0.000000  -0.000000   0.000000
  114  H  3  Y   -1.721132  -0.590440  -2.086111   2.875094  -0.923234
  115  H  3  Z    0.166886  -1.411464   1.719051  -2.086938   0.924053
  116  H  3  X    0.000000  -0.000000   0.000000  -0.000000   0.000000
  117  H  3  Y   -1.340093   0.336033  -1.631935   1.774755  -0.330773
  118  H  3  Z    0.621147  -0.566873   1.131236  -1.408804   0.440346
  119  H  3 XX   -0.100648   0.168899   0.386067  -0.393677   0.101277
  120  H  3 YY   -0.021606  -0.711782  -0.282360   0.355397  -0.089873
  121  H  3 ZZ    0.122255   0.542883  -0.103707   0.038280  -0.011404
  122  H  3 XY    0.000000  -0.000000   0.000000  -0.000000   0.000000
  123  H  3 XZ    0.000000  -0.000000   0.000000  -0.000000   0.000000
  124  H  3 YZ   -0.373420  -0.071145   0.727190  -0.605579   0.162059
  125  H  3 XX    0.628355  -0.414393   0.239170  -0.577245   0.375593
  126  H  3 YY   -1.002529  -0.292251  -0.220653   0.563806  -0.206328
  127  H  3 ZZ    0.374173   0.706644  -0.018517   0.013439  -0.169265
  128  H  3 XY    0.000000  -0.000000   0.000000  -0.000000   0.000000
  129  H  3 XZ    0.000000  -0.000000   0.000000  -0.000000   0.000000
  130  H  3 YZ    0.763340  -0.553613   0.321876  -1.008154   0.748326
  131  H  3 XXX   0.000000  -0.000000   0.000000  -0.000000   0.000000
  132  H  3 YYY  -0.390962  -0.460161   0.006507   0.040113   0.031044
  133  H  3 ZZZ  -0.166909  -0.207699  -0.074441   0.186690  -0.127011
  134  H  3 XXY   0.346540  -0.098745   0.125610  -0.272585   0.189108
  135  H  3 XXZ  -0.150187   0.194914  -0.080745   0.228092  -0.172119
  136  H  3 YYX   0.000000  -0.000000   0.000000  -0.000000   0.000000
  137  H  3 YYZ   0.374119   0.083743   0.180618  -0.478564   0.342522
  138  H  3 ZZX   0.000000  -0.000000   0.000000  -0.000000   0.000000
  139  H  3 ZZY   0.177991   0.716117  -0.134340   0.218768  -0.230759
  140  H  3 XYZ   0.000000  -0.000000   0.000000  -0.000000   0.000000
 ...... END OF RHF CALCULATION ......
 CPU     0: STEP CPU TIME=     0.73 TOTAL CPU TIME=          1.2 (      0.0 MIN)
 TOTAL WALL CLOCK TIME=          1.2 SECONDS, CPU UTILIZATION IS    99.19%

     ----------------------------------------------------------------
     PROPERTY VALUES FOR THE RHF   SELF-CONSISTENT FIELD WAVEFUNCTION
     ----------------------------------------------------------------

          -----------------
          ENERGY COMPONENTS
          -----------------

         WAVEFUNCTION NORMALIZATION =       1.0000000000

                ONE ELECTRON ENERGY =     -63.5683094844
                TWO ELECTRON ENERGY =      18.6394619291
           NUCLEAR REPULSION ENERGY =       6.0337757527
                                      ------------------
                       TOTAL ENERGY =     -38.8950718025

 ELECTRON-ELECTRON POTENTIAL ENERGY =      18.6394619291
  NUCLEUS-ELECTRON POTENTIAL ENERGY =    -102.4314186005
   NUCLEUS-NUCLEUS POTENTIAL ENERGY =       6.0337757527
                                      ------------------
             TOTAL POTENTIAL ENERGY =     -77.7581809186
               TOTAL KINETIC ENERGY =      38.8631091161
                 VIRIAL RATIO (V/T) =       2.0008224429

          ---------------------------------------
          MULLIKEN AND LOWDIN POPULATION ANALYSES
          ---------------------------------------

     ATOMIC MULLIKEN POPULATION IN EACH MOLECULAR ORBITAL

                      1          2          3          4

                  2.000000   2.000000   2.000000   2.000000

    1             1.997122   1.318272   1.014202   1.819067
    2             0.001439   0.340864   0.492899   0.090466
    3             0.001439   0.340864   0.492899   0.090466

               ----- POPULATIONS IN EACH AO -----
                             MULLIKEN      LOWDIN
              1  C  1  S      1.98598     1.06371
              2  C  1  S     -0.02495     0.84923
              3  C  1  S      0.36969     0.16622
              4  C  1  S      0.93073     0.19122
              5  C  1  S      0.38056     0.15441
              6  C  1  X      0.00000     0.00000
              7  C  1  Y      0.09381     0.08916
              8  C  1  Z      0.12268     0.12280
              9  C  1  X      0.00000     0.00000
             10  C  1  Y      0.33214     0.14796
             11  C  1  Z      0.41299     0.19453
             12  C  1  X      0.00000     0.00000
             13  C  1  Y      0.44520     0.20343
             14  C  1  Z      0.61429     0.26628
             15  C  1  X      0.00000     0.00000
             16  C  1  Y      0.11116     0.14746
             17  C  1  Z      0.32803     0.26822
             18  C  1 XX      0.00020     0.06663
             19  C  1 YY      0.00042     0.06725
             20  C  1 ZZ      0.00000     0.06635
             21  C  1 XY      0.00000     0.00000
             22  C  1 XZ      0.00188     0.00000
             23  C  1 YZ      0.00000     0.00098
             24  C  1 XX      0.00155     0.08287
             25  C  1 YY      0.00304     0.08672
             26  C  1 ZZ      0.00000     0.08624
             27  C  1 XY      0.00000     0.00000
             28  C  1 XZ      0.01462     0.00000
             29  C  1 YZ      0.00000     0.01050
             30  C  1 XX      0.00468     0.06133
             31  C  1 YY      0.00353     0.06567
             32  C  1 ZZ      0.00000     0.06577
             33  C  1 XY      0.00000     0.00000
             34  C  1 XZ      0.01543     0.00000
             35  C  1 YZ      0.00000     0.02666
             36  C  1 XXX     0.00000     0.00000
             37  C  1 YYY     0.00014     0.09450
             38  C  1 ZZZ     0.00000     0.12427
             39  C  1 XXY     0.00008     0.04081
             40  C  1 XXZ     0.00004     0.05654
             41  C  1 YYX     0.00000     0.00000
             42  C  1 YYZ     0.00000     0.06407
             43  C  1 ZZX     0.00000     0.00000
             44  C  1 ZZY     0.00000     0.04973
             45  C  1 XYZ     0.00000     0.00000
             46  C  1 XXX     0.00000     0.00000
             47  C  1 YYY     0.00052     0.13332
             48  C  1 ZZZ     0.00000     0.16219
             49  C  1 XXY     0.00023     0.05349
             50  C  1 XXZ     0.00015     0.07978
             51  C  1 YYX     0.00000     0.00000
             52  C  1 YYZ    -0.00024     0.11015
             53  C  1 ZZX     0.00000     0.00000
             54  C  1 ZZY     0.00000     0.09092
             55  C  1 XYZ     0.00000     0.00000
             56  C  1XXXX    -0.00000     0.04427
             57  C  1YYYY     0.00000     0.04744
             58  C  1ZZZZ     0.00004     0.04622
             59  C  1XXXY     0.00000     0.00000
             60  C  1XXXZ     0.00003     0.00000
             61  C  1YYYX     0.00001     0.00000
             62  C  1YYYZ     0.00000     0.00732
             63  C  1ZZZX    -0.00000     0.00000
             64  C  1ZZZY     0.00000     0.00757
             65  C  1XXYY     0.00000     0.04915
             66  C  1XXZZ     0.00000     0.04865
             67  C  1YYZZ     0.00000     0.06153
             68  C  1XXYZ     0.00000     0.00153
             69  C  1YYXZ     0.00000     0.00000
             70  C  1ZZXY     0.00000     0.00000
             71  H  2  S      0.06770     0.07589
             72  H  2  S      0.30862     0.14231
             73  H  2  S      0.44966     0.17391
             74  H  2  S      0.06347     0.09262
             75  H  2  X      0.00000     0.00000
             76  H  2  Y      0.00104     0.00113
             77  H  2  Z      0.00084     0.00097
             78  H  2  X      0.00000     0.00000
             79  H  2  Y      0.00836     0.00869
             80  H  2  Z      0.00691     0.00972
             81  H  2  X      0.00000     0.00000
             82  H  2  Y      0.00454     0.03899
             83  H  2  Z      0.01162     0.06316
             84  H  2 XX      0.00009     0.04559
             85  H  2 YY      0.00012     0.05394
             86  H  2 ZZ      0.00000     0.05206
             87  H  2 XY      0.00000     0.00000
             88  H  2 XZ      0.00021     0.00000
             89  H  2 YZ      0.00000     0.00059
             90  H  2 XX      0.00091     0.06253
             91  H  2 YY      0.00051     0.08813
             92  H  2 ZZ      0.00000     0.08615
             93  H  2 XY      0.00000     0.00000
             94  H  2 XZ      0.00086     0.00000
             95  H  2 YZ      0.00000     0.01123
             96  H  2 XXX     0.00000     0.00000
             97  H  2 YYY     0.00006     0.00854
             98  H  2 ZZZ     0.00000     0.00768
             99  H  2 XXY     0.00004     0.00171
            100  H  2 XXZ     0.00008     0.00213
            101  H  2 YYX     0.00000     0.00000
            102  H  2 YYZ     0.00003     0.00529
            103  H  2 ZZX     0.00000     0.00000
            104  H  2 ZZY     0.00000     0.00449
            105  H  2 XYZ     0.00000     0.00000
            106  H  3  S      0.06770     0.07589
            107  H  3  S      0.30862     0.14231
            108  H  3  S      0.44966     0.17391
            109  H  3  S      0.06347     0.09262
            110  H  3  X      0.00000     0.00000
            111  H  3  Y      0.00104     0.00113
            112  H  3  Z      0.00084     0.00097
            113  H  3  X      0.00000     0.00000
            114  H  3  Y      0.00836     0.00869
            115  H  3  Z      0.00691     0.00972
            116  H  3  X      0.00000     0.00000
            117  H  3  Y      0.00454     0.03899
            118  H  3  Z      0.01162     0.06316
            119  H  3 XX      0.00009     0.04559
            120  H  3 YY      0.00012     0.05394
            121  H  3 ZZ      0.00000     0.05206
            122  H  3 XY      0.00000     0.00000
            123  H  3 XZ      0.00021     0.00000
            124  H  3 YZ      0.00000     0.00059
            125  H  3 XX      0.00091     0.06253
            126  H  3 YY      0.00051     0.08813
            127  H  3 ZZ      0.00000     0.08615
            128  H  3 XY      0.00000     0.00000
            129  H  3 XZ      0.00086     0.00000
            130  H  3 YZ      0.00000     0.01123
            131  H  3 XXX     0.00000     0.00000
            132  H  3 YYY     0.00006     0.00854
            133  H  3 ZZZ     0.00000     0.00768
            134  H  3 XXY     0.00004     0.00171
            135  H  3 XXZ     0.00008     0.00213
            136  H  3 YYX     0.00000     0.00000
            137  H  3 YYZ     0.00003     0.00529
            138  H  3 ZZX     0.00000     0.00000
            139  H  3 ZZY     0.00000     0.00449
            140  H  3 XYZ     0.00000     0.00000

          ----- MULLIKEN ATOMIC OVERLAP POPULATIONS -----
          (OFF-DIAGONAL ELEMENTS NEED TO BE MULTIPLIED BY 2)

             1           2           3

    1    5.4217333
    2    0.3634648   0.6114630
    3    0.3634648  -0.0492592   0.6114630

          TOTAL MULLIKEN AND LOWDIN ATOMIC POPULATIONS
       ATOM         MULL.POP.    CHARGE          LOW.POP.     CHARGE
    1 C             6.148663   -0.148663         5.925087    0.074913
    2 H             0.925669    0.074331         1.037457   -0.037457
    3 H             0.925669    0.074331         1.037457   -0.037457

          MULLIKEN SPHERICAL HARMONIC POPULATIONS
       ATOM           S       P       D      F      G      H      I    TOTAL
    1 C             3.64    2.46    0.05   0.00   0.00   0.00   0.00    6.15
    2 H             0.89    0.03    0.00   0.00   0.00   0.00   0.00    0.93
    3 H             0.89    0.03    0.00   0.00   0.00   0.00   0.00    0.93

          -------------------------------
          BOND ORDER AND VALENCE ANALYSIS     BOND ORDER THRESHOLD=0.050
          -------------------------------

                   BOND                       BOND                       BOND
  ATOM PAIR DIST  ORDER      ATOM PAIR DIST  ORDER      ATOM PAIR DIST  ORDER
    1   2  1.109  0.987        1   3  1.109  0.987

                       TOTAL       BONDED        FREE
      ATOM            VALENCE     VALENCE     VALENCE
    1 C                 1.973       1.973      -0.000
    2 H                 0.984       0.984       0.000
    3 H                 0.984       0.984      -0.000

          ---------------------
          ELECTROSTATIC MOMENTS
          ---------------------

 POINT   1           X           Y           Z (BOHR)    CHARGE
                 0.000000    0.000000   -0.062871       -0.00 (A.U.)
         DX          DY          DZ         /D/  (DEBYE)
     0.000000    0.000000    1.905600    1.905600
 ...... END OF PROPERTY EVALUATION ......
 CPU     0: STEP CPU TIME=     0.01 TOTAL CPU TIME=          1.2 (      0.0 MIN)
 TOTAL WALL CLOCK TIME=          1.2 SECONDS, CPU UTILIZATION IS    98.40%
               580000  WORDS OF DYNAMIC MEMORY USED
 EXECUTION OF GAMESS TERMINATED NORMALLY Tue Dec 26 17:06:40 2023
 DDI: 263640 bytes (0.3 MB / 0 MWords) used by master data server.

 ----------------------------------------
 CPU timing information for all processes
 ========================================
 0: 1.78 + 0.163 = 1.242
 1: 0.974 + 0.180 = 1.154
 ----------------------------------------
 ddikick.x: exited gracefully.
----- accounting info -----
Files used on the master node Ryzen7 were:
-rw-rw-r-- 1 yingjin yingjin       281 12月 26 17:06 /media/workdir/gmstmp/test-geom.F05
-rw-rw-r-- 1 yingjin yingjin 140952528 12月 26 17:06 /media/workdir/gmstmp/test-geom.F08
-rw-rw-r-- 1 yingjin yingjin 131591696 12月 26 17:06 /media/workdir/gmstmp/test-geom.F08.001
-rw-rw-r-- 1 yingjin yingjin   2813920 12月 26 17:06 /media/workdir/gmstmp/test-geom.F10
2023年 12月 26日 星期二 17:06:43 CST
1.7u 4.4s 0:10.51 59.3% 0+0k 0+24io 0pf+0w
