 &FCI NORB=   2,NELEC=  2,
  ORBSYM= 1, 1,
  ISYM=1
 &END
   0.531819227482       1   1   1   1
   0.164365049349E-15   2   1   1   1
   0.106479118907       2   1   2   1
   0.414041068380       2   2   1   1
  -0.112757025938E-15   2   2   2   1
   0.376790932180       2   2   2   2
  -0.998050349641       1   1   0   0
    0.00000000000       2   1   0   0
  -0.628207908959       2   2   0   0
   0.418598114242       0   0   0   0
