 &FCI NORB= 10,NELEC= 2,MS2= 0,
  ORBSYM=1,1,1,1,1,1,1,1,1,1,
  ISYM=1
 &END
   0.531819227482             1     1     1     1
   0.164365049349E-15         1     1     2     1
   0.106479118907             2     1     2     1
  -0.112757025938E-15         2     2     2     1
   0.414041068380             1     1     2     2
   0.376790932180             2     2     2     2
  -0.126037523157             1     1     3     1
  -0.143082160703E-14         2     1     3     1
  -0.656125139015E-01         2     2     3     1
   0.786724665095E-01         3     1     3     1
   0.199162518075E-14         3     2     3     1
  -0.860185877739E-01         3     3     3     1
  -0.261813479425E-14         1     1     3     2
  -0.840396517515E-02         2     1     3     2
  -0.150140316846E-14         2     2     3     2
   0.336268346142E-01         3     2     3     2
  -0.278249645547E-14         3     3     3     2
   0.429836178021             1     1     3     3
   0.411823353197E-14         2     1     3     3
   0.352427097174             2     2     3     3
   0.372380500265             3     3     3     3
  -0.224549111943E-14         1     1     4     1
   0.773355582974E-01         2     1     4     1
  -0.964506252643E-15         2     2     4     1
  -0.178297047265E-15         3     1     4     1
  -0.381196979959E-01         3     2     4     1
   0.183360271411E-14         3     3     4     1
   0.875485681532E-01         4     1     4     1
  -0.235813972516E-14         4     2     4     1
  -0.823680354924E-01         4     3     4     1
  -0.528227364193E-14         4     4     4     1
   0.134378218191             1     1     4     2
   0.247740196413E-15         2     1     4     2
   0.825840023170E-01         2     2     4     2
  -0.702080184438E-01         3     1     4     2
  -0.863892291036E-15         3     2     4     2
   0.916144452493E-01         3     3     4     2
   0.803305601579E-01         4     2     4     2
   0.189084858881E-14         4     3     4     2
   0.122777484820             4     4     4     2
  -0.539282160594E-15         1     1     4     3
  -0.986440339036E-01         2     1     4     3
  -0.131838984174E-14         2     2     4     3
   0.209516648822E-14         3     1     4     3
   0.169514667496E-01         3     2     4     3
  -0.415726481018E-14         3     3     4     3
   0.107440617535             4     3     4     3
   0.432661718952E-14         4     4     4     3
   0.461892301393             1     1     4     4
  -0.479651041108E-14         2     1     4     4
   0.390515943099             2     2     4     4
  -0.111814274517             3     1     4     4
  -0.596744875736E-15         3     2     4     4
   0.392504363489             3     3     4     4
   0.448744239360             4     4     4     4
   0.889212258410E-01         5     1     5     1
  -0.229709176804E-01         5     3     5     1
  -0.418989929557E-15         5     4     5     1
   0.394068930944E-01         5     2     5     2
  -0.542968447981E-15         5     3     5     2
   0.292434938767E-01         5     4     5     2
   0.139843110590E-01         5     3     5     3
  -0.222044604925E-15         5     4     5     3
   0.277723217068E-01         5     4     5     4
   0.540059260065             1     1     5     5
   0.426813533066             2     2     5     5
  -0.120231003624             3     1     5     5
  -0.269922972862E-14         3     2     5     5
   0.427201784973             3     3     5     5
  -0.218824524473E-14         4     1     5     5
   0.137386079264             4     2     5     5
  -0.547305256671E-15         4     3     5     5
   0.463586802271             4     4     5     5
   0.589615670932             5     5     5     5
   0.889212258410E-01         6     1     6     1
  -0.229709176804E-01         6     3     6     1
  -0.418989929557E-15         6     4     6     1
   0.394068930944E-01         6     2     6     2
  -0.542968447981E-15         6     3     6     2
   0.292434938767E-01         6     4     6     2
   0.139843110590E-01         6     3     6     3
  -0.222044604925E-15         6     4     6     3
   0.277723217068E-01         6     4     6     4
   0.257944898251E-01         6     5     6     5
   0.540059260065             1     1     6     6
   0.426813533066             2     2     6     6
  -0.120231003624             3     1     6     6
  -0.269922972862E-14         3     2     6     6
   0.427201784973             3     3     6     6
  -0.218824524473E-14         4     1     6     6
   0.137386079264             4     2     6     6
  -0.547305256671E-15         4     3     6     6
   0.463586802271             4     4     6     6
   0.538026691282             5     5     6     6
   0.589615670932             6     6     6     6
   0.397213712606E-01         1     1     7     1
   0.129236898960E-15         2     1     7     1
  -0.195585485696E-01         2     2     7     1
  -0.230122211797E-01         3     1     7     1
  -0.111022302463E-15         3     2     7     1
   0.236816635235E-01         3     3     7     1
  -0.549664878703E-15         4     1     7     1
  -0.176202238951E-02         4     2     7     1
   0.826948102009E-15         4     3     7     1
  -0.880326017290E-02         4     4     7     1
   0.291790248249E-01         5     5     7     1
   0.291790248249E-01         6     6     7     1
   0.800823038717E-01         7     1     7     1
  -0.390964279373E-01         7     3     7     1
  -0.851532386270E-15         7     4     7     1
   0.135482374077E-01         7     7     7     1
   0.176616533898E-15         1     1     7     2
  -0.758831297821E-01         2     1     7     2
   0.194289029309E-15         2     2     7     2
   0.850339763880E-15         3     1     7     2
   0.302579902568E-02         3     2     7     2
  -0.227075303005E-14         3     3     7     2
  -0.508368485590E-01         4     1     7     2
   0.630003647483E-01         4     3     7     2
   0.215799600412E-14         4     4     7     2
   0.270616862252E-15         5     5     7     2
   0.270616862252E-15         6     6     7     2
   0.772871987370E-01         7     2     7     2
  -0.929811783124E-15         7     3     7     2
   0.584843844604E-01         7     4     7     2
   0.423272528138E-15         7     7     7     2
  -0.337316763628E-01         1     1     7     3
   0.754225241290E-15         2     1     7     3
  -0.612779145937E-02         2     2     7     3
   0.176496255474E-01         3     1     7     3
  -0.190670495519E-01         3     3     7     3
   0.133101147969E-14         4     1     7     3
  -0.152304192262E-02         4     2     7     3
  -0.155726668540E-14         4     3     7     3
  -0.571009196139E-02         4     4     7     3
  -0.289468700291E-01         5     5     7     3
  -0.289468700291E-01         6     6     7     3
   0.279004812455E-01         7     3     7     3
  -0.242861286637E-15         7     4     7     3
  -0.335108439326E-01         7     7     7     3
  -0.815536874144E-15         1     1     7     4
  -0.569991494566E-01         2     1     7     4
  -0.451028103754E-15         2     2     7     4
   0.115052146412E-14         3     1     7     4
   0.110541456787E-01         3     2     7     4
  -0.240432673770E-14         3     3     7     4
  -0.472058157903E-01         4     1     7     4
   0.530660299139E-01         4     3     7     4
   0.299760216649E-14         4     4     7     4
  -0.603683769640E-15         5     5     7     4
  -0.603683769640E-15         6     6     7     4
   0.529255129799E-01         7     4     7     4
  -0.112583553591E-14         7     7     7     4
   0.454995295783E-02         5     1     7     5
  -0.402025990712E-02         5     3     7     5
   0.321456154831E-01         7     5     7     5
   0.454995295783E-02         6     1     7     6
  -0.402025990712E-02         6     3     7     6
   0.321456154831E-01         7     6     7     6
   0.546760286657             1     1     7     7
   0.444166961403             2     2     7     7
  -0.134276148965             3     1     7     7
  -0.262290189568E-14         3     2     7     7
   0.434669754712             3     3     7     7
  -0.218496553316E-14         4     1     7     7
   0.146688204440             4     2     7     7
  -0.136349265212E-14         4     3     7     7
   0.484027607018             4     4     7     7
   0.552483854861             5     5     7     7
   0.552483854861             6     6     7     7
   0.618973695067             7     7     7     7
  -0.459274029726E-01         5     2     8     1
   0.690419943439E-15         5     3     8     1
  -0.364129698642E-01         5     4     8     1
   0.555089952272E-01         8     1     8     1
  -0.164905420426E-01         8     3     8     1
  -0.268990558994E-15         8     4     8     1
  -0.205519145290E-01         8     7     8     1
  -0.660889897005E-01         5     1     8     2
   0.146572187737E-01         5     3     8     2
   0.208166817117E-15         5     4     8     2
   0.119442668469E-01         7     5     8     2
   0.570991460451E-01         8     2     8     2
  -0.732053306862E-15         8     3     8     2
   0.401551666589E-01         8     4     8     2
   0.917329905613E-15         5     1     8     3
   0.117984759011E-01         5     2     8     3
  -0.675674793893E-15         5     3     8     3
   0.155811293848E-01         5     4     8     3
   0.114894517873E-01         8     3     8     3
  -0.444089209850E-15         8     4     8     3
   0.350657303021E-02         8     7     8     3
  -0.496451168383E-01         5     1     8     4
   0.156125112838E-15         5     2     8     4
   0.182757274403E-01         5     3     8     4
   0.652256026967E-15         5     4     8     4
   0.636955953436E-02         7     5     8     4
   0.358851769068E-01         8     4     8     4
  -0.132673895728             2     1     8     5
   0.111022302463E-15         2     2     8     5
   0.185647937995E-14         3     1     8     5
   0.185802741180E-01         3     2     8     5
  -0.477048955894E-14         3     3     8     5
  -0.103173139442             4     1     8     5
  -0.124900090270E-15         4     2     8     5
   0.115409889369             4     3     8     5
   0.491273688397E-14         4     4     8     5
  -0.107769695945E-15         7     1     8     5
   0.880338090614E-01         7     2     8     5
  -0.111716191853E-14         7     3     8     5
   0.667687358345E-01         7     4     8     5
   0.121430643318E-15         7     7     8     5
   0.205971539678             8     5     8     5
   0.224475421116E-01         8     6     8     6
   0.214164389318E-01         5     2     8     7
  -0.230718222305E-15         5     3     8     7
   0.140343393213E-01         5     4     8     7
   0.254855381129E-01         8     7     8     7
   0.526109720617             1     1     8     8
   0.103216046821E-15         2     1     8     8
   0.431185800268             2     2     8     8
  -0.113206557690             3     1     8     8
  -0.260208521397E-14         3     2     8     8
   0.419497706005             3     3     8     8
  -0.204800369372E-14         4     1     8     8
   0.137125419672             4     2     8     8
  -0.268882138776E-15         4     3     8     8
   0.464496473908             4     4     8     8
   0.579747169319             5     5     8     8
   0.528431799380             6     6     8     8
   0.568239006341E-02         7     1     8     8
   0.267147415300E-15         7     2     8     8
  -0.181516994223E-01         7     3     8     8
  -0.536896915815E-15         7     4     8     8
   0.542088786879             7     7     8     8
   0.580398410090             8     8     8     8
   0.459274029726E-01         6     2     9     1
  -0.690419943439E-15         6     3     9     1
   0.364129698642E-01         6     4     9     1
   0.555089952272E-01         9     1     9     1
  -0.164905420426E-01         9     3     9     1
  -0.268990558994E-15         9     4     9     1
  -0.205519145290E-01         9     7     9     1
   0.660889897005E-01         6     1     9     2
  -0.146572187737E-01         6     3     9     2
  -0.208166817117E-15         6     4     9     2
  -0.119442668469E-01         7     6     9     2
   0.570991460451E-01         9     2     9     2
  -0.732053306862E-15         9     3     9     2
   0.401551666589E-01         9     4     9     2
  -0.917329905613E-15         6     1     9     3
  -0.117984759011E-01         6     2     9     3
   0.675674793893E-15         6     3     9     3
  -0.155811293848E-01         6     4     9     3
   0.114894517873E-01         9     3     9     3
  -0.444089209850E-15         9     4     9     3
   0.350657303021E-02         9     7     9     3
   0.496451168383E-01         6     1     9     4
  -0.156125112838E-15         6     2     9     4
  -0.182757274403E-01         6     3     9     4
  -0.652256026967E-15         6     4     9     4
  -0.636955953436E-02         7     6     9     4
   0.358851769068E-01         9     4     9     4
  -0.224475421116E-01         8     6     9     5
   0.224475421116E-01         9     5     9     5
   0.132673895728             2     1     9     6
  -0.111022302463E-15         2     2     9     6
  -0.185647937995E-14         3     1     9     6
  -0.185802741180E-01         3     2     9     6
   0.477048955894E-14         3     3     9     6
   0.103173139442             4     1     9     6
   0.124900090270E-15         4     2     9     6
  -0.115409889369             4     3     9     6
  -0.491273688397E-14         4     4     9     6
   0.107769695945E-15         7     1     9     6
  -0.880338090614E-01         7     2     9     6
   0.111716191853E-14         7     3     9     6
  -0.667687358345E-01         7     4     9     6
  -0.121430643318E-15         7     7     9     6
  -0.161076455454             8     5     9     6
   0.205971539678             9     6     9     6
  -0.214164389318E-01         6     2     9     7
   0.230718222305E-15         6     3     9     7
  -0.140343393213E-01         6     4     9     7
   0.254855381129E-01         9     7     9     7
  -0.256576849698E-01         6     5     9     8
   0.272843130896E-01         9     8     9     8
   0.526109720617             1     1     9     9
   0.103216046821E-15         2     1     9     9
   0.431185800268             2     2     9     9
  -0.113206557690             3     1     9     9
  -0.260208521397E-14         3     2     9     9
   0.419497706005             3     3     9     9
  -0.204800369372E-14         4     1     9     9
   0.137125419672             4     2     9     9
  -0.268882138776E-15         4     3     9     9
   0.464496473908             4     4     9     9
   0.528431799380             5     5     9     9
   0.579747169319             6     6     9     9
   0.568239006341E-02         7     1     9     9
   0.267147415300E-15         7     2     9     9
  -0.181516994223E-01         7     3     9     9
  -0.536896915815E-15         7     4     9     9
   0.542088786879             7     7     9     9
   0.525829783911             8     8     9     9
   0.580398410090             9     9     9     9
   0.131418855832E-15         1     1    10     1
  -0.118744399364E-01         2     1    10     1
   0.454795706303E-15         3     1    10     1
   0.171382103644E-01         3     2    10     1
  -0.841340885849E-15         3     3    10     1
  -0.261355580410E-01         4     1    10     1
   0.371230823859E-15         4     2    10     1
   0.236146026644E-01         4     3    10     1
   0.113450915329E-14         4     4    10     1
  -0.228371908342E-01         7     2    10     1
   0.301841884820E-15         7     3    10     1
  -0.166566702752E-01         7     4    10     1
   0.252784310298E-01         8     5    10     1
  -0.252784310298E-01         9     6    10     1
   0.492592984725E-01        10     1    10     1
  -0.296136883450E-01        10     3    10     1
  -0.635776153945E-15        10     4    10     1
  -0.423285278043E-02        10     7    10     1
   0.266280053562E-15        10    10    10     1
  -0.195824330425E-01         1     1    10     2
   0.203874877317E-01         2     2    10     2
   0.179217525759E-01         3     1    10     2
  -0.161736346488E-01         3     3    10     2
   0.256163092040E-15         4     1    10     2
  -0.265350276054E-02         4     2    10     2
   0.305528172206E-15         4     3    10     2
   0.761800920460E-03         4     4    10     2
  -0.137476991084E-01         5     5    10     2
  -0.137476991084E-01         6     6    10     2
  -0.492788618914E-01         7     1    10     2
   0.174166247857E-01         7     3    10     2
   0.555111512313E-15         7     4    10     2
   0.206604589538E-01         7     7    10     2
  -0.191198640617E-02         8     8    10     2
  -0.191198640617E-02         9     9    10     2
   0.457047075623E-01        10     2    10     2
  -0.768482499858E-15        10     3    10     2
   0.390401497632E-01        10     4    10     2
   0.104083408559E-15        10     7    10     2
   0.145221982052E-01        10    10    10     2
   0.137726201971E-14         1     1    10     3
   0.259851569343E-01         2     1    10     3
   0.416333634234E-15         2     2    10     3
  -0.153441712461E-14         3     1    10     3
  -0.180711661740E-01         3     2    10     3
   0.247891984717E-14         3     3    10     3
   0.351695867409E-01         4     1    10     3
   0.343475248243E-15         4     2    10     3
  -0.326750513318E-01         4     3    10     3
   0.129757316003E-14         5     5    10     3
   0.129757316003E-14         6     6    10     3
   0.834307124255E-15         7     1    10     3
  -0.465047755772E-02         7     2    10     3
  -0.297071395261E-15         7     3    10     3
  -0.107494874272E-02         7     4    10     3
   0.887744738831E-15         7     7    10     3
  -0.358423466898E-01         8     5    10     3
   0.110675357767E-14         8     8    10     3
   0.358423466898E-01         9     6    10     3
   0.110675357767E-14         9     9    10     3
   0.286466440556E-01        10     3    10     3
  -0.282759926584E-15        10     4    10     3
  -0.267825646099E-01        10     7    10     3
   0.101654795692E-14        10    10    10     3
  -0.712417659133E-01         1     1    10     4
   0.572296116746E-15         2     1    10     4
  -0.193150901935E-01         2     2    10     4
   0.428543737910E-01         3     1    10     4
   0.461436444610E-15         3     2    10     4
  -0.513875787288E-01         3     3    10     4
   0.208052975889E-14         4     1    10     4
  -0.278601412060E-01         4     2    10     4
  -0.236789754471E-14         4     3    10     4
  -0.455842231692E-01         4     4    10     4
  -0.649490825193E-01         5     5    10     4
  -0.649490825193E-01         6     6    10     4
  -0.462719271656E-01         7     1    10     4
  -0.249800180541E-15         7     2    10     4
   0.243680933033E-01         7     3    10     4
  -0.277555756156E-15         7     4    10     4
  -0.444958307752E-01         7     7    10     4
  -0.766747776382E-15         8     5    10     4
  -0.535700317310E-01         8     8    10     4
   0.766747776382E-15         9     6    10     4
  -0.535700317310E-01         9     9    10     4
   0.500262142312E-01        10     4    10     4
  -0.846545056277E-15        10     7    10     4
  -0.536600553944E-01        10    10    10     4
  -0.620661909326E-02         5     2    10     5
   0.167183974997E-15         5     3    10     5
  -0.972211443331E-02         5     4    10     5
   0.136596605906E-01         8     1    10     5
  -0.857858862679E-02         8     3    10     5
  -0.211636264069E-15         8     4    10     5
   0.142902931792E-01         8     7    10     5
   0.249782076199E-01        10     5    10     5
  -0.620661909326E-02         6     2    10     6
   0.167183974997E-15         6     3    10     6
  -0.972211443331E-02         6     4    10     6
  -0.136596605906E-01         9     1    10     6
   0.857858862679E-02         9     3    10     6
   0.211636264069E-15         9     4    10     6
  -0.142902931792E-01         9     7    10     6
   0.249782076199E-01        10     6    10     6
  -0.103432887255E-15         1     1    10     7
  -0.115225756443             2     1    10     7
   0.111022302463E-15         2     2    10     7
   0.167097238823E-14         3     1    10     7
   0.110194855394E-01         3     2    10     7
  -0.447558656802E-14         3     3    10     7
  -0.844556096901E-01         4     1    10     7
  -0.329597460436E-15         4     2    10     7
   0.992986665331E-01         4     3    10     7
   0.481559236931E-14         4     4    10     7
   0.988579248949E-01         7     2    10     7
  -0.126287869051E-14         7     3    10     7
   0.699905131541E-01         7     4    10     7
   0.137995328035             8     5    10     7
  -0.137995328035             9     6    10     7
   0.160651405604            10     7    10     7
   0.289698820488E-15        10    10    10     7
   0.267667962628E-01         5     1    10     8
  -0.111755118784E-01         5     3    10     8
  -0.242861286637E-15         5     4    10     8
   0.232669558722E-01         7     5    10     8
  -0.982551073864E-02         8     2    10     8
   0.218141477104E-15         8     3    10     8
  -0.121135036960E-01         8     4    10     8
   0.300351732545E-01        10     8    10     8
  -0.267667962628E-01         6     1    10     9
   0.111755118784E-01         6     3    10     9
   0.242861286637E-15         6     4    10     9
  -0.232669558722E-01         7     6    10     9
  -0.982551073864E-02         9     2    10     9
   0.218141477104E-15         9     3    10     9
  -0.121135036960E-01         9     4    10     9
   0.300351732545E-01        10     9    10     9
   0.540159964645             1     1    10    10
  -0.291433543964E-15         2     1    10    10
   0.441834952430             2     2    10    10
  -0.132886004593             3     1    10    10
  -0.274086309204E-14         3     2    10    10
   0.433257251541             3     3    10    10
  -0.176719533104E-14         4     1    10    10
   0.145619257667             4     2    10    10
  -0.235748920385E-14         4     3    10    10
   0.483700341920             4     4    10    10
   0.546944582394             5     5    10    10
   0.546944582394             6     6    10    10
   0.885192466986E-02         7     1    10    10
   0.488324658487E-15         7     2    10    10
  -0.310058418467E-01         7     3    10    10
  -0.149272955108E-14         7     4    10    10
   0.596960725061             7     7    10    10
   0.539954924121             8     8    10    10
   0.539954924121             9     9    10    10
   0.597421775082            10    10    10    10
  -0.998050349641             1     1     0     0
  -0.628207908959             2     2     0     0
   0.107362511373             3     1     0     0
   0.306785846726E-14         3     2     0     0
  -0.179872455707             3     3     0     0
   0.176768322202E-14         4     1     0     0
  -0.179399058679             4     2     0     0
  -0.187133294971E-14         4     3     0     0
  -0.115024404497             4     4     0     0
   0.348750197501             5     5     0     0
   0.348750197501             6     6     0     0
  -0.257623518908E-02         7     1     0     0
  -0.221610924056E-15         7     2     0     0
   0.367183010672E-01         7     3     0     0
   0.411513078596             7     7     0     0
   0.733690164869             8     8     0     0
   0.733690164869             9     9     0     0
  -0.190819582357E-15        10     1     0     0
   0.246717170458E-01        10     2     0     0
  -0.147104550763E-14        10     3     0     0
   0.950417364322E-01        10     4     0     0
    1.36587463243            10    10     0     0
   0.418598114242             0     0     0     0
