 Entering Gaussian System, Link 0=g16
 Input=GEOM-test.gjf
 Output=GEOM-test.log
 Initial command:
 /home/yingjin/Quantum_Soft/g16/l1.exe "/media/workdir/g16tmp/Gau-1716106.inp" -scrdir="/media/workdir/g16tmp/"
 Entering Link 1 = /home/yingjin/Quantum_Soft/g16/l1.exe PID=   1716108.
  
 Copyright (c) 1988,1990,1992,1993,1995,1998,2003,2009,2016,
            Gaussian, Inc.  All Rights Reserved.
  
 This is part of the Gaussian(R) 16 program.  It is based on
 the Gaussian(R) 09 system (copyright 2009, Gaussian, Inc.),
 the Gaussian(R) 03 system (copyright 2003, Gaussian, Inc.),
 the Gaussian(R) 98 system (copyright 1998, Gaussian, Inc.),
 the Gaussian(R) 94 system (copyright 1995, Gaussian, Inc.),
 the Gaussian 92(TM) system (copyright 1992, Gaussian, Inc.),
 the Gaussian 90(TM) system (copyright 1990, Gaussian, Inc.),
 the Gaussian 88(TM) system (copyright 1988, Gaussian, Inc.),
 the Gaussian 86(TM) system (copyright 1986, Carnegie Mellon
 University), and the Gaussian 82(TM) system (copyright 1983,
 Carnegie Mellon University). Gaussian is a federally registered
 trademark of Gaussian, Inc.
  
 This software contains proprietary and confidential information,
 including trade secrets, belonging to Gaussian, Inc.
  
 This software is provided under written license and may be
 used, copied, transmitted, or stored only in accord with that
 written license.
  
 The following legend is applicable only to US Government
 contracts under FAR:
  
                    RESTRICTED RIGHTS LEGEND
  
 Use, reproduction and disclosure by the US Government is
 subject to restrictions as set forth in subparagraphs (a)
 and (c) of the Commercial Computer Software - Restricted
 Rights clause in FAR 52.227-19.
  
 Gaussian, Inc.
 340 Quinnipiac St., Bldg. 40, Wallingford CT 06492
  
  
 ---------------------------------------------------------------
 Warning -- This program may not be used in any manner that
 competes with the business of Gaussian, Inc. or will provide
 assistance to any competitor of Gaussian, Inc.  The licensee
 of this program is prohibited from giving any competitor of
 Gaussian, Inc. access to this program.  By using this program,
 the user acknowledges that Gaussian, Inc. is engaged in the
 business of creating and licensing software in the field of
 computational chemistry and represents and warrants to the
 licensee that it is not a competitor of Gaussian, Inc. and that
 it will not use this program in any manner prohibited above.
 ---------------------------------------------------------------
  

 Cite this work as:
 Gaussian 16, Revision A.03,
 M. J. Frisch, G. W. Trucks, H. B. Schlegel, G. E. Scuseria, 
 M. A. Robb, J. R. Cheeseman, G. Scalmani, V. Barone, 
 G. A. Petersson, H. Nakatsuji, X. Li, M. Caricato, A. V. Marenich, 
 J. Bloino, B. G. Janesko, R. Gomperts, B. Mennucci, H. P. Hratchian, 
 J. V. Ortiz, A. F. Izmaylov, J. L. Sonnenberg, D. Williams-Young, 
 F. Ding, F. Lipparini, F. Egidi, J. Goings, B. Peng, A. Petrone, 
 T. Henderson, D. Ranasinghe, V. G. Zakrzewski, J. Gao, N. Rega, 
 G. Zheng, W. Liang, M. Hada, M. Ehara, K. Toyota, R. Fukuda, 
 J. Hasegawa, M. Ishida, T. Nakajima, Y. Honda, O. Kitao, H. Nakai, 
 T. Vreven, K. Throssell, J. A. Montgomery, Jr., J. E. Peralta, 
 F. Ogliaro, M. J. Bearpark, J. J. Heyd, E. N. Brothers, K. N. Kudin, 
 V. N. Staroverov, T. A. Keith, R. Kobayashi, J. Normand, 
 K. Raghavachari, A. P. Rendell, J. C. Burant, S. S. Iyengar, 
 J. Tomasi, M. Cossi, J. M. Millam, M. Klene, C. Adamo, R. Cammi, 
 J. W. Ochterski, R. L. Martin, K. Morokuma, O. Farkas, 
 J. B. Foresman, and D. J. Fox, Gaussian, Inc., Wallingford CT, 2016.
 
 ******************************************
 Gaussian 16:  ES64L-G16RevA.03 25-Dec-2016
                19-Dec-2023 
 ******************************************
 %nproc=4
 Will use up to    4 processors via shared memory.
 %mem = 10GB
 %chk = geom.chk
 ----------------------------
 #p HF cc-pvdz nosym pop=full
 ----------------------------
 1/38=1,172=1/1;
 2/12=2,15=1,17=6,18=5,40=1/2;
 3/5=16,11=9,25=1,30=1/1,2,3;
 4//1;
 5/5=2,38=5/2;
 6/7=3,28=1/1;
 99/5=1,9=1/99;
 Leave Link    1 at Tue Dec 19 12:52:38 2023, MaxMem=  1342177280 cpu:               0.0 elap:               0.0
 (Enter /home/yingjin/Quantum_Soft/g16/l101.exe)
 ----
 geom
 ----
 Symbolic Z-matrix:
 Charge =  0 Multiplicity = 1
 C                     0.        0.       -0.13375 
 H                     0.        0.86111   0.56493 
 H                     0.       -0.86111   0.56493 
 
 ITRead=  0  0  0
 MicOpt= -1 -1 -1
 NAtoms=      3 NQM=        3 NQMF=       0 NMMI=      0 NMMIF=      0
                NMic=       0 NMicF=      0.
                    Isotopes and Nuclear Properties:
 (Nuclear quadrupole moments (NQMom) in fm**2, nuclear magnetic moments (NMagM)
  in nuclear magnetons)

  Atom         1           2           3
 IAtWgt=          12           1           1
 AtmWgt=  12.0000000   1.0078250   1.0078250
 NucSpn=           0           1           1
 AtZEff=   0.0000000   0.0000000   0.0000000
 NQMom=    0.0000000   0.0000000   0.0000000
 NMagM=    0.0000000   2.7928460   2.7928460
 AtZNuc=   6.0000000   1.0000000   1.0000000
 Leave Link  101 at Tue Dec 19 12:52:38 2023, MaxMem=  1342177280 cpu:               0.3 elap:               0.1
 (Enter /home/yingjin/Quantum_Soft/g16/l202.exe)
                          Input orientation:                          
 ---------------------------------------------------------------------
 Center     Atomic      Atomic             Coordinates (Angstroms)
 Number     Number       Type             X           Y           Z
 ---------------------------------------------------------------------
      1          6           0        0.000000    0.000000   -0.133750
      2          1           0        0.000000    0.861107    0.564930
      3          1           0        0.000000   -0.861107    0.564930
 ---------------------------------------------------------------------
                    Distance matrix (angstroms):
                    1          2          3
     1  C    0.000000
     2  H    1.108900   0.000000
     3  H    1.108900   1.722214   0.000000
 Symmetry turned off by external request.
 Stoichiometry    CH2
 Framework group  C2V[C2(C),SGV(H2)]
 Deg. of freedom     2
 Full point group                 C2V     NOp   4
 Rotational constants (GHZ):         599.8975003         338.1333075         216.2459103
 Leave Link  202 at Tue Dec 19 12:52:38 2023, MaxMem=  1342177280 cpu:               0.0 elap:               0.0
 (Enter /home/yingjin/Quantum_Soft/g16/l301.exe)
 Standard basis: CC-pVDZ (5D, 7F)
 Ernie: Thresh=  0.10000D-02 Tol=  0.10000D-05 Strict=F.
 Ernie:  2 primitive shells out of 32 were deleted.
    24 basis functions,    47 primitive gaussians,    25 cartesian basis functions
     4 alpha electrons        4 beta electrons
       nuclear repulsion energy         6.0337753158 Hartrees.
 IExCor=    0 DFT=F Ex=HF Corr=None ExCW=0 ScaHFX=  1.000000
 ScaDFX=  1.000000  1.000000  1.000000  1.000000 ScalE2=  1.000000  1.000000
 IRadAn=      5 IRanWt=     -1 IRanGd=            0 ICorTp=0 IEmpDi=  4
 NAtoms=    3 NActive=    3 NUniq=    3 SFac= 1.00D+00 NAtFMM=   60 NAOKFM=F Big=F
 Integral buffers will be    131072 words long.
 Raffenetti 1 integral format.
 Two-electron integral symmetry is turned off.
 Leave Link  301 at Tue Dec 19 12:52:38 2023, MaxMem=  1342177280 cpu:               0.1 elap:               0.0
 (Enter /home/yingjin/Quantum_Soft/g16/l302.exe)
 NPDir=0 NMtPBC=     1 NCelOv=     1 NCel=       1 NClECP=     1 NCelD=      1
         NCelK=      1 NCelE2=     1 NClLst=     1 CellRange=     0.0.
 One-electron integrals computed using PRISM.
 NBasis=    24 RedAO= T EigKep=  2.89D-02  NBF=    24
 NBsUse=    24 1.00D-06 EigRej= -1.00D+00 NBFU=    24
 Leave Link  302 at Tue Dec 19 12:52:38 2023, MaxMem=  1342177280 cpu:               0.2 elap:               0.1
 (Enter /home/yingjin/Quantum_Soft/g16/l303.exe)
 DipDrv:  MaxL=1.
 Leave Link  303 at Tue Dec 19 12:52:38 2023, MaxMem=  1342177280 cpu:               0.1 elap:               0.0
 (Enter /home/yingjin/Quantum_Soft/g16/l401.exe)
 ExpMin= 1.22D-01 ExpMax= 6.67D+03 ExpMxC= 2.28D+02 IAcc=3 IRadAn=         5 AccDes= 0.00D+00
 Harris functional with IExCor=  205 and IRadAn=       5 diagonalized for initial guess.
 HarFok:  IExCor=  205 AccDes= 0.00D+00 IRadAn=         5 IDoV= 1 UseB2=F ITyADJ=14
 ICtDFT=  3500011 ScaDFX=  1.000000  1.000000  1.000000  1.000000
 FoFCou: FMM=F IPFlag=           0 FMFlag=      100000 FMFlg1=           0
         NFxFlg=           0 DoJE=T BraDBF=F KetDBF=T FulRan=T
         wScrn=  0.000000 ICntrl=       500 IOpCl=  0 I1Cent=   200000004 NGrid=           0
         NMat0=    1 NMatS0=      1 NMatT0=    0 NMatD0=    1 NMtDS0=    0 NMtDT0=    0
 Symmetry not used in FoFCou.
 Harris En= -38.9084105950295    
 JPrj=0 DoOrth=F DoCkMO=F.
 Leave Link  401 at Tue Dec 19 12:52:38 2023, MaxMem=  1342177280 cpu:               0.3 elap:               0.1
 (Enter /home/yingjin/Quantum_Soft/g16/l502.exe)
 Keep R1 ints in memory in canonical form, NReq=877097.
 FoFCou: FMM=F IPFlag=           0 FMFlag=           0 FMFlg1=           0
         NFxFlg=           0 DoJE=F BraDBF=F KetDBF=F FulRan=T
         wScrn=  0.000000 ICntrl=       600 IOpCl=  0 I1Cent=           0 NGrid=           0
         NMat0=    1 NMatS0=    300 NMatT0=    0 NMatD0=    1 NMtDS0=    0 NMtDT0=    0
 Symmetry not used in FoFCou.
 Two-electron integral symmetry not used.
 Closed shell SCF:
 Using DIIS extrapolation, IDIIS=  1040.
 NGot=  1342177280 LenX=  1342130352 LenY=  1342129286
 Requested convergence on RMS density matrix=1.00D-08 within 128 cycles.
 Requested convergence on MAX density matrix=1.00D-06.
 Requested convergence on             energy=1.00D-06.
 No special actions if energy rises.

 Cycle   1  Pass 1  IDiag  1:
 E= -38.8601762123329    
 DIIS: error= 2.84D-02 at cycle   1 NSaved=   1.
 NSaved= 1 IEnMin= 1 EnMin= -38.8601762123329     IErMin= 1 ErrMin= 2.84D-02
 ErrMax= 2.84D-02  0.00D+00 EMaxC= 1.00D-01 BMatC= 2.39D-02 BMatP= 2.39D-02
 IDIUse=3 WtCom= 7.16D-01 WtEn= 2.84D-01
 Coeff-Com:  0.100D+01
 Coeff-En:   0.100D+01
 Coeff:      0.100D+01
 Gap=     0.487 Goal=   None    Shift=    0.000
 GapD=    0.487 DampG=2.000 DampE=0.500 DampFc=1.0000 IDamp=-1.
 RMSDP=6.03D-03 MaxDP=6.87D-02              OVMax= 6.71D-02

 Cycle   2  Pass 1  IDiag  1:
 E= -38.8800314082419     Delta-E=       -0.019855195909 Rises=F Damp=F
 DIIS: error= 6.50D-03 at cycle   2 NSaved=   2.
 NSaved= 2 IEnMin= 2 EnMin= -38.8800314082419     IErMin= 2 ErrMin= 6.50D-03
 ErrMax= 6.50D-03  0.00D+00 EMaxC= 1.00D-01 BMatC= 1.09D-03 BMatP= 2.39D-02
 IDIUse=3 WtCom= 9.35D-01 WtEn= 6.50D-02
 Coeff-Com:  0.851D-01 0.915D+00
 Coeff-En:   0.000D+00 0.100D+01
 Coeff:      0.795D-01 0.920D+00
 Gap=     0.455 Goal=   None    Shift=    0.000
 RMSDP=1.64D-03 MaxDP=2.19D-02 DE=-1.99D-02 OVMax= 1.32D-02

 Cycle   3  Pass 1  IDiag  1:
 E= -38.8810397292520     Delta-E=       -0.001008321010 Rises=F Damp=F
 DIIS: error= 9.88D-04 at cycle   3 NSaved=   3.
 NSaved= 3 IEnMin= 3 EnMin= -38.8810397292520     IErMin= 3 ErrMin= 9.88D-04
 ErrMax= 9.88D-04  0.00D+00 EMaxC= 1.00D-01 BMatC= 2.13D-05 BMatP= 1.09D-03
 IDIUse=3 WtCom= 9.90D-01 WtEn= 9.88D-03
 Coeff-Com: -0.182D-01 0.408D-01 0.977D+00
 Coeff-En:   0.000D+00 0.000D+00 0.100D+01
 Coeff:     -0.180D-01 0.404D-01 0.978D+00
 Gap=     0.453 Goal=   None    Shift=    0.000
 RMSDP=2.38D-04 MaxDP=2.21D-03 DE=-1.01D-03 OVMax= 2.77D-03

 Cycle   4  Pass 1  IDiag  1:
 E= -38.8810763918912     Delta-E=       -0.000036662639 Rises=F Damp=F
 DIIS: error= 2.08D-04 at cycle   4 NSaved=   4.
 NSaved= 4 IEnMin= 4 EnMin= -38.8810763918912     IErMin= 4 ErrMin= 2.08D-04
 ErrMax= 2.08D-04  0.00D+00 EMaxC= 1.00D-01 BMatC= 9.46D-07 BMatP= 2.13D-05
 IDIUse=3 WtCom= 9.98D-01 WtEn= 2.08D-03
 Coeff-Com:  0.539D-02-0.300D-01-0.329D+00 0.135D+01
 Coeff-En:   0.000D+00 0.000D+00 0.000D+00 0.100D+01
 Coeff:      0.538D-02-0.299D-01-0.329D+00 0.135D+01
 Gap=     0.453 Goal=   None    Shift=    0.000
 RMSDP=1.09D-04 MaxDP=8.17D-04 DE=-3.67D-05 OVMax= 1.15D-03

 Cycle   5  Pass 1  IDiag  1:
 E= -38.8810789839415     Delta-E=       -0.000002592050 Rises=F Damp=F
 DIIS: error= 3.19D-05 at cycle   5 NSaved=   5.
 NSaved= 5 IEnMin= 5 EnMin= -38.8810789839415     IErMin= 5 ErrMin= 3.19D-05
 ErrMax= 3.19D-05  0.00D+00 EMaxC= 1.00D-01 BMatC= 1.88D-08 BMatP= 9.46D-07
 IDIUse=1 WtCom= 1.00D+00 WtEn= 0.00D+00
 Coeff-Com: -0.125D-02 0.782D-02 0.825D-01-0.429D+00 0.134D+01
 Coeff:     -0.125D-02 0.782D-02 0.825D-01-0.429D+00 0.134D+01
 Gap=     0.453 Goal=   None    Shift=    0.000
 RMSDP=3.25D-05 MaxDP=2.95D-04 DE=-2.59D-06 OVMax= 2.80D-04

 Cycle   6  Pass 1  IDiag  1:
 E= -38.8810790677027     Delta-E=       -0.000000083761 Rises=F Damp=F
 DIIS: error= 5.24D-06 at cycle   6 NSaved=   6.
 NSaved= 6 IEnMin= 6 EnMin= -38.8810790677027     IErMin= 6 ErrMin= 5.24D-06
 ErrMax= 5.24D-06  0.00D+00 EMaxC= 1.00D-01 BMatC= 5.26D-10 BMatP= 1.88D-08
 IDIUse=1 WtCom= 1.00D+00 WtEn= 0.00D+00
 Coeff-Com:  0.248D-03-0.166D-02-0.165D-01 0.902D-01-0.379D+00 0.131D+01
 Coeff:      0.248D-03-0.166D-02-0.165D-01 0.902D-01-0.379D+00 0.131D+01
 Gap=     0.453 Goal=   None    Shift=    0.000
 RMSDP=5.81D-06 MaxDP=6.04D-05 DE=-8.38D-08 OVMax= 4.91D-05

 Cycle   7  Pass 1  IDiag  1:
 E= -38.8810790702321     Delta-E=       -0.000000002529 Rises=F Damp=F
 DIIS: error= 1.42D-06 at cycle   7 NSaved=   7.
 NSaved= 7 IEnMin= 7 EnMin= -38.8810790702321     IErMin= 7 ErrMin= 1.42D-06
 ErrMax= 1.42D-06  0.00D+00 EMaxC= 1.00D-01 BMatC= 3.49D-11 BMatP= 5.26D-10
 IDIUse=1 WtCom= 1.00D+00 WtEn= 0.00D+00
 Coeff-Com: -0.402D-04 0.272D-03 0.262D-02-0.152D-01 0.939D-01-0.559D+00
 Coeff-Com:  0.148D+01
 Coeff:     -0.402D-04 0.272D-03 0.262D-02-0.152D-01 0.939D-01-0.559D+00
 Coeff:      0.148D+01
 Gap=     0.453 Goal=   None    Shift=    0.000
 RMSDP=1.01D-06 MaxDP=8.51D-06 DE=-2.53D-09 OVMax= 1.02D-05

 Cycle   8  Pass 1  IDiag  1:
 E= -38.8810790703693     Delta-E=       -0.000000000137 Rises=F Damp=F
 DIIS: error= 1.51D-07 at cycle   8 NSaved=   8.
 NSaved= 8 IEnMin= 8 EnMin= -38.8810790703693     IErMin= 8 ErrMin= 1.51D-07
 ErrMax= 1.51D-07  0.00D+00 EMaxC= 1.00D-01 BMatC= 4.24D-13 BMatP= 3.49D-11
 IDIUse=1 WtCom= 1.00D+00 WtEn= 0.00D+00
 Coeff-Com:  0.117D-05-0.819D-05-0.554D-04 0.497D-03-0.922D-02 0.896D-01
 Coeff-Com: -0.330D+00 0.125D+01
 Coeff:      0.117D-05-0.819D-05-0.554D-04 0.497D-03-0.922D-02 0.896D-01
 Coeff:     -0.330D+00 0.125D+01
 Gap=     0.453 Goal=   None    Shift=    0.000
 RMSDP=5.76D-08 MaxDP=6.43D-07 DE=-1.37D-10 OVMax= 6.87D-07

 Cycle   9  Pass 1  IDiag  1:
 E= -38.8810790703704     Delta-E=       -0.000000000001 Rises=F Damp=F
 DIIS: error= 1.38D-08 at cycle   9 NSaved=   9.
 NSaved= 9 IEnMin= 9 EnMin= -38.8810790703704     IErMin= 9 ErrMin= 1.38D-08
 ErrMax= 1.38D-08  0.00D+00 EMaxC= 1.00D-01 BMatC= 4.17D-15 BMatP= 4.24D-13
 IDIUse=1 WtCom= 1.00D+00 WtEn= 0.00D+00
 Coeff-Com:  0.702D-06-0.474D-05-0.493D-04 0.230D-03 0.377D-03-0.117D-01
 Coeff-Com:  0.550D-01-0.285D+00 0.124D+01
 Coeff:      0.702D-06-0.474D-05-0.493D-04 0.230D-03 0.377D-03-0.117D-01
 Coeff:      0.550D-01-0.285D+00 0.124D+01
 Gap=     0.453 Goal=   None    Shift=    0.000
 RMSDP=5.21D-09 MaxDP=3.92D-08 DE=-1.06D-12 OVMax= 4.77D-08

 SCF Done:  E(RHF) =  -38.8810790704     A.U. after    9 cycles
            NFock=  9  Conv=0.52D-08     -V/T= 2.0013
 KE= 3.883035498139D+01 PE=-1.023970533689D+02 EE= 1.865184400139D+01
 Leave Link  502 at Tue Dec 19 12:52:38 2023, MaxMem=  1342177280 cpu:               0.3 elap:               0.1
 (Enter /home/yingjin/Quantum_Soft/g16/l601.exe)
 Copying SCF densities to generalized density rwf, IOpCl= 0 IROHF=0.

 **********************************************************************

            Population analysis using the SCF density.

 **********************************************************************

 Alpha  occ. eigenvalues --  -11.29323  -0.88911  -0.55880  -0.39036
 Alpha virt. eigenvalues --    0.06291   0.19560   0.26069   0.58639   0.69459
 Alpha virt. eigenvalues --    0.73825   0.78400   0.86443   1.00936   1.20332
 Alpha virt. eigenvalues --    1.21479   1.28904   1.74839   1.76449   1.93690
 Alpha virt. eigenvalues --    2.00960   2.02658   2.31242   2.65755   2.75003
     Molecular Orbital Coefficients:
                           1         2         3         4         5
                           O         O         O         O         V
     Eigenvalues --   -11.29323  -0.88911  -0.55880  -0.39036   0.06291
   1 1   C  1S          0.99751  -0.18187   0.00000   0.09303   0.00000
   2        2S          0.01636   0.38808   0.00000  -0.21084   0.00000
   3        3S         -0.00516   0.30928   0.00000  -0.41696   0.00000
   4        4PX         0.00000   0.00000   0.00000   0.00000   0.43711
   5        4PY         0.00000   0.00000   0.43743   0.00000   0.00000
   6        4PZ         0.00305   0.12528   0.00000   0.49787   0.00000
   7        5PX         0.00000   0.00000   0.00000   0.00000   0.68559
   8        5PY         0.00000   0.00000   0.18435   0.00000   0.00000
   9        5PZ        -0.00139   0.02155   0.00000   0.37720   0.00000
  10        6D 0        0.00056   0.00756   0.00000   0.03089   0.00000
  11        6D+1        0.00000   0.00000   0.00000   0.00000   0.03021
  12        6D-1        0.00000   0.00000   0.04686   0.00000   0.00000
  13        6D+2       -0.00110  -0.00715   0.00000  -0.00988   0.00000
  14        6D-2        0.00000   0.00000   0.00000   0.00000   0.00000
  15 2   H  1S         -0.00083   0.24523   0.32241   0.15398   0.00000
  16        2S          0.00136   0.03882   0.14371   0.07093   0.00000
  17        3PX         0.00000   0.00000   0.00000   0.00000   0.01628
  18        3PY         0.00083  -0.02592  -0.00893  -0.01102   0.00000
  19        3PZ         0.00061  -0.01526  -0.01664   0.00863   0.00000
  20 3   H  1S         -0.00083   0.24523  -0.32241   0.15398   0.00000
  21        2S          0.00136   0.03882  -0.14371   0.07093   0.00000
  22        3PX         0.00000   0.00000   0.00000   0.00000   0.01628
  23        3PY        -0.00083   0.02592  -0.00893   0.01102   0.00000
  24        3PZ         0.00061  -0.01526   0.01664   0.00863   0.00000
                           6         7         8         9        10
                           V         V         V         V         V
     Eigenvalues --     0.19560   0.26069   0.58639   0.69459   0.73825
   1 1   C  1S         -0.10236   0.00000   0.00000  -0.06195   0.00000
   2        2S          0.08245   0.00000   0.00000   0.21054   0.00000
   3        3S          1.83608   0.00000   0.00000   0.58890   0.00000
   4        4PX         0.00000   0.00000   0.00000   0.00000   1.07998
   5        4PY         0.00000  -0.34291  -0.24604   0.00000   0.00000
   6        4PZ         0.20040   0.00000   0.00000  -0.74851   0.00000
   7        5PX         0.00000   0.00000   0.00000   0.00000  -0.98151
   8        5PY         0.00000  -1.25989   1.13475   0.00000   0.00000
   9        5PZ         0.76561   0.00000   0.00000   1.38136   0.00000
  10        6D 0        0.01863   0.00000   0.00000   0.00115   0.00000
  11        6D+1        0.00000   0.00000   0.00000   0.00000   0.01138
  12        6D-1        0.00000  -0.04553  -0.12794   0.00000   0.00000
  13        6D+2       -0.02207   0.00000   0.00000   0.07605   0.00000
  14        6D-2        0.00000   0.00000   0.00000   0.00000   0.00000
  15 2   H  1S         -0.01271   0.03399  -0.68733  -0.46247   0.00000
  16        2S         -1.37508   1.76648   0.13795  -0.21766   0.00000
  17        3PX         0.00000   0.00000   0.00000   0.00000   0.05875
  18        3PY         0.01713  -0.02227   0.00001   0.01910   0.00000
  19        3PZ         0.01000  -0.01106  -0.02759   0.01165   0.00000
  20 3   H  1S         -0.01271  -0.03399   0.68733  -0.46247   0.00000
  21        2S         -1.37508  -1.76648  -0.13795  -0.21766   0.00000
  22        3PX         0.00000   0.00000   0.00000   0.00000   0.05875
  23        3PY        -0.01713  -0.02227   0.00001  -0.01910   0.00000
  24        3PZ         0.01000   0.01106   0.02759   0.01165   0.00000
                          11        12        13        14        15
                           V         V         V         V         V
     Eigenvalues --     0.78400   0.86443   1.00936   1.20332   1.21479
   1 1   C  1S          0.04236   0.00000  -0.00793  -0.01568   0.00000
   2        2S          0.12000   0.00000  -1.78987  -0.29607   0.00000
   3        3S         -0.12239   0.00000   3.52826   0.67088   0.00000
   4        4PX         0.00000   0.00000   0.00000   0.00000   0.00000
   5        4PY         0.00000  -0.87784   0.00000   0.00000   0.00000
   6        4PZ        -0.56377   0.00000  -0.12406   0.13754   0.00000
   7        5PX         0.00000   0.00000   0.00000   0.00000   0.00000
   8        5PY         0.00000   1.62151   0.00000   0.00000   0.00000
   9        5PZ         0.23517   0.00000   0.92021   0.35770   0.00000
  10        6D 0        0.00310   0.00000   0.03886  -0.62689   0.00000
  11        6D+1        0.00000   0.00000   0.00000   0.00000   0.00000
  12        6D-1        0.00000   0.30941   0.00000   0.00000   0.00000
  13        6D+2       -0.27868   0.00000   0.01871  -0.02063   0.00000
  14        6D-2        0.00000   0.00000   0.00000   0.00000   0.64866
  15 2   H  1S          0.69049   0.32026  -0.07226  -0.19267   0.00000
  16        2S         -0.45776  -1.43759  -1.19192  -0.15470   0.00000
  17        3PX         0.00000   0.00000   0.00000   0.00000   0.36383
  18        3PY         0.19493   0.14904   0.10834   0.20827   0.00000
  19        3PZ         0.02743   0.18572   0.15738  -0.28382   0.00000
  20 3   H  1S          0.69049  -0.32026  -0.07226  -0.19267   0.00000
  21        2S         -0.45776   1.43759  -1.19192  -0.15470   0.00000
  22        3PX         0.00000   0.00000   0.00000   0.00000  -0.36383
  23        3PY        -0.19493   0.14904  -0.10834  -0.20827   0.00000
  24        3PZ         0.02743  -0.18572   0.15738  -0.28382   0.00000
                          16        17        18        19        20
                           V         V         V         V         V
     Eigenvalues --     1.28904   1.74839   1.76449   1.93690   2.00960
   1 1   C  1S          0.00000  -0.04892   0.00000   0.00000   0.00000
   2        2S          0.00000  -0.64198   0.00000   0.00000   0.00000
   3        3S          0.00000   1.44720   0.00000   0.00000   0.00000
   4        4PX        -0.14456   0.00000   0.00000   0.00000   0.00000
   5        4PY         0.00000   0.00000   0.09351  -0.24414   0.00000
   6        4PZ         0.00000  -0.05748   0.00000   0.00000   0.00000
   7        5PX        -0.12038   0.00000   0.00000   0.00000   0.00000
   8        5PY         0.00000   0.00000   0.42339   0.46740   0.00000
   9        5PZ         0.00000   0.70108   0.00000   0.00000   0.00000
  10        6D 0        0.00000   0.25081   0.00000   0.00000   0.00000
  11        6D+1        0.74915   0.00000   0.00000   0.00000   0.00000
  12        6D-1        0.00000   0.00000  -0.09662   0.90609   0.00000
  13        6D+2        0.00000  -0.97729   0.00000   0.00000   0.00000
  14        6D-2        0.00000   0.00000   0.00000   0.00000   0.94150
  15 2   H  1S          0.00000  -0.67382  -0.10421  -0.57442   0.00000
  16        2S          0.00000  -0.25309  -0.11479   0.17164   0.00000
  17        3PX         0.31738   0.00000   0.00000   0.00000  -0.73173
  18        3PY         0.00000  -0.11908  -0.51609  -0.29278   0.00000
  19        3PZ         0.00000  -0.13459   0.57702  -0.24720   0.00000
  20 3   H  1S          0.00000  -0.67382   0.10421   0.57442   0.00000
  21        2S          0.00000  -0.25309   0.11479  -0.17164   0.00000
  22        3PX         0.31738   0.00000   0.00000   0.00000   0.73173
  23        3PY         0.00000   0.11908  -0.51609  -0.29278   0.00000
  24        3PZ         0.00000  -0.13459  -0.57702   0.24720   0.00000
                          21        22        23        24
                           V         V         V         V
     Eigenvalues --     2.02658   2.31242   2.65755   2.75003
   1 1   C  1S          0.00000  -0.01538  -0.06056   0.00000
   2        2S          0.00000  -0.16955   0.85368   0.00000
   3        3S          0.00000   0.53034   1.59576   0.00000
   4        4PX         0.18295   0.00000   0.00000   0.00000
   5        4PY         0.00000   0.00000   0.00000   1.27013
   6        4PZ         0.00000   0.13362   0.98057   0.00000
   7        5PX         0.33635   0.00000   0.00000   0.00000
   8        5PY         0.00000   0.00000   0.00000   0.96509
   9        5PZ         0.00000   0.51128   0.60067   0.00000
  10        6D 0        0.00000   1.01667   0.14829   0.00000
  11        6D+1        0.80946   0.00000   0.00000   0.00000
  12        6D-1        0.00000   0.00000   0.00000   1.46596
  13        6D+2        0.00000   0.42607  -0.76534   0.00000
  14        6D-2        0.00000   0.00000   0.00000   0.00000
  15 2   H  1S          0.00000  -0.13097  -1.01118  -1.25503
  16        2S          0.00000  -0.17873  -0.53859  -0.59792
  17        3PX        -0.78343   0.00000   0.00000   0.00000
  18        3PY         0.00000   0.53604   0.88759   0.88794
  19        3PZ         0.00000  -0.65607   0.70393   0.75875
  20 3   H  1S          0.00000  -0.13097  -1.01118   1.25503
  21        2S          0.00000  -0.17873  -0.53859   0.59792
  22        3PX        -0.78343   0.00000   0.00000   0.00000
  23        3PY         0.00000  -0.53604  -0.88759   0.88794
  24        3PZ         0.00000  -0.65607   0.70393  -0.75875
     Density Matrix:
                           1         2         3         4         5
   1 1   C  1S          2.07351
   2        2S         -0.14775   0.39065
   3        3S         -0.20036   0.41570   0.53906
   4        4PX         0.00000   0.00000   0.00000   0.00000
   5        4PY         0.00000   0.00000   0.00000   0.00000   0.38270
   6        4PZ         0.05316  -0.11261  -0.33772   0.00000   0.00000
   7        5PX         0.00000   0.00000   0.00000   0.00000   0.00000
   8        5PY         0.00000   0.00000   0.00000   0.00000   0.16128
   9        5PZ         0.05958  -0.14238  -0.30120   0.00000   0.00000
  10        6D 0        0.00411  -0.00714  -0.02109   0.00000   0.00000
  11        6D+1        0.00000   0.00000   0.00000   0.00000   0.00000
  12        6D-1        0.00000   0.00000   0.00000   0.00000   0.04100
  13        6D+2       -0.00143  -0.00142   0.00382   0.00000   0.00000
  14        6D-2        0.00000   0.00000   0.00000   0.00000   0.00000
  15 2   H  1S         -0.06221   0.12537   0.02329   0.00000   0.28206
  16        2S          0.00179   0.00027  -0.03515   0.00000   0.12573
  17        3PX         0.00000   0.00000   0.00000   0.00000   0.00000
  18        3PY         0.00904  -0.01544  -0.00685   0.00000  -0.00781
  19        3PZ         0.00837  -0.01546  -0.01664   0.00000  -0.01456
  20 3   H  1S         -0.06221   0.12537   0.02329   0.00000  -0.28206
  21        2S          0.00179   0.00027  -0.03515   0.00000  -0.12573
  22        3PX         0.00000   0.00000   0.00000   0.00000   0.00000
  23        3PY        -0.00904   0.01544   0.00685   0.00000  -0.00781
  24        3PZ         0.00837  -0.01546  -0.01664   0.00000   0.01456
                           6         7         8         9        10
   6        4PZ         0.52715
   7        5PX         0.00000   0.00000
   8        5PY         0.00000   0.00000   0.06797
   9        5PZ         0.38098   0.00000   0.00000   0.28549
  10        6D 0        0.03265   0.00000   0.00000   0.02363   0.00202
  11        6D+1        0.00000   0.00000   0.00000   0.00000   0.00000
  12        6D-1        0.00000   0.00000   0.01728   0.00000   0.00000
  13        6D+2       -0.01163   0.00000   0.00000  -0.00776  -0.00072
  14        6D-2        0.00000   0.00000   0.00000   0.00000   0.00000
  15 2   H  1S          0.21476   0.00000   0.11887   0.12673   0.01322
  16        2S          0.08036   0.00000   0.05298   0.05518   0.00497
  17        3PX         0.00000   0.00000   0.00000   0.00000   0.00000
  18        3PY        -0.01746   0.00000  -0.00329  -0.00943  -0.00107
  19        3PZ         0.00478   0.00000  -0.00613   0.00585   0.00030
  20 3   H  1S          0.21476   0.00000  -0.11887   0.12673   0.01322
  21        2S          0.08036   0.00000  -0.05298   0.05518   0.00497
  22        3PX         0.00000   0.00000   0.00000   0.00000   0.00000
  23        3PY         0.01746   0.00000  -0.00329   0.00943   0.00107
  24        3PZ         0.00478   0.00000   0.00613   0.00585   0.00030
                          11        12        13        14        15
  11        6D+1        0.00000
  12        6D-1        0.00000   0.00439
  13        6D+2        0.00000   0.00000   0.00030
  14        6D-2        0.00000   0.00000   0.00000   0.00000
  15 2   H  1S          0.00000   0.03022  -0.00655   0.00000   0.37558
  16        2S          0.00000   0.01347  -0.00196   0.00000   0.13355
  17        3PX         0.00000   0.00000   0.00000   0.00000   0.00000
  18        3PY         0.00000  -0.00084   0.00059   0.00000  -0.02187
  19        3PZ         0.00000  -0.00156   0.00005   0.00000  -0.01556
  20 3   H  1S          0.00000  -0.03022  -0.00655   0.00000  -0.04020
  21        2S          0.00000  -0.01347  -0.00196   0.00000  -0.05178
  22        3PX         0.00000   0.00000   0.00000   0.00000   0.00000
  23        3PY         0.00000  -0.00084  -0.00059   0.00000   0.01035
  24        3PZ         0.00000   0.00156   0.00005   0.00000   0.00590
                          16        17        18        19        20
  16        2S          0.05439
  17        3PX         0.00000   0.00000
  18        3PY        -0.00614   0.00000   0.00175
  19        3PZ        -0.00474   0.00000   0.00090   0.00117
  20 3   H  1S         -0.05178   0.00000  -0.01035   0.00590   0.37558
  21        2S         -0.02822   0.00000  -0.00101   0.00482   0.13355
  22        3PX         0.00000   0.00000   0.00000   0.00000   0.00000
  23        3PY         0.00101   0.00000  -0.00143  -0.00030   0.02187
  24        3PZ         0.00482   0.00000   0.00030   0.00006  -0.01556
                          21        22        23        24
  21        2S          0.05439
  22        3PX         0.00000   0.00000
  23        3PY         0.00614   0.00000   0.00175
  24        3PZ        -0.00474   0.00000  -0.00090   0.00117
    Full Mulliken population analysis:
                           1         2         3         4         5
   1 1   C  1S          2.07351
   2        2S         -0.03046   0.39065
   3        3S         -0.03599   0.33274   0.53906
   4        4PX         0.00000   0.00000   0.00000   0.00000
   5        4PY         0.00000   0.00000   0.00000   0.00000   0.38270
   6        4PZ         0.00000   0.00000   0.00000   0.00000   0.00000
   7        5PX         0.00000   0.00000   0.00000   0.00000   0.00000
   8        5PY         0.00000   0.00000   0.00000   0.00000   0.08560
   9        5PZ         0.00000   0.00000   0.00000   0.00000   0.00000
  10        6D 0        0.00000   0.00000   0.00000   0.00000   0.00000
  11        6D+1        0.00000   0.00000   0.00000   0.00000   0.00000
  12        6D-1        0.00000   0.00000   0.00000   0.00000   0.00000
  13        6D+2        0.00000   0.00000   0.00000   0.00000   0.00000
  14        6D-2        0.00000   0.00000   0.00000   0.00000   0.00000
  15 2   H  1S         -0.00307   0.04093   0.01050   0.00000   0.08415
  16        2S          0.00016   0.00012  -0.02560   0.00000   0.02047
  17        3PX         0.00000   0.00000   0.00000   0.00000   0.00000
  18        3PY        -0.00065   0.00472   0.00130   0.00000   0.00129
  19        3PZ        -0.00049   0.00384   0.00256   0.00000   0.00444
  20 3   H  1S         -0.00307   0.04093   0.01050   0.00000   0.08415
  21        2S          0.00016   0.00012  -0.02560   0.00000   0.02047
  22        3PX         0.00000   0.00000   0.00000   0.00000   0.00000
  23        3PY        -0.00065   0.00472   0.00130   0.00000   0.00129
  24        3PZ        -0.00049   0.00384   0.00256   0.00000   0.00444
                           6         7         8         9        10
   6        4PZ         0.52715
   7        5PX         0.00000   0.00000
   8        5PY         0.00000   0.00000   0.06797
   9        5PZ         0.20221   0.00000   0.00000   0.28549
  10        6D 0        0.00000   0.00000   0.00000   0.00000   0.00202
  11        6D+1        0.00000   0.00000   0.00000   0.00000   0.00000
  12        6D-1        0.00000   0.00000   0.00000   0.00000   0.00000
  13        6D+2        0.00000   0.00000   0.00000   0.00000   0.00000
  14        6D-2        0.00000   0.00000   0.00000   0.00000   0.00000
  15 2   H  1S          0.05198   0.00000   0.05204   0.04502   0.00051
  16        2S          0.01062   0.00000   0.02205   0.01863   0.00004
  17        3PX         0.00000   0.00000   0.00000   0.00000   0.00000
  18        3PY         0.00532   0.00000  -0.00032   0.00146   0.00026
  19        3PZ        -0.00017   0.00000   0.00095   0.00094   0.00008
  20 3   H  1S          0.05198   0.00000   0.05204   0.04502   0.00051
  21        2S          0.01062   0.00000   0.02205   0.01863   0.00004
  22        3PX         0.00000   0.00000   0.00000   0.00000   0.00000
  23        3PY         0.00532   0.00000  -0.00032   0.00146   0.00026
  24        3PZ        -0.00017   0.00000   0.00095   0.00094   0.00008
                          11        12        13        14        15
  11        6D+1        0.00000
  12        6D-1        0.00000   0.00439
  13        6D+2        0.00000   0.00000   0.00030
  14        6D-2        0.00000   0.00000   0.00000   0.00000
  15 2   H  1S          0.00000   0.01026   0.00137   0.00000   0.37558
  16        2S          0.00000   0.00092   0.00008   0.00000   0.09146
  17        3PX         0.00000   0.00000   0.00000   0.00000   0.00000
  18        3PY         0.00000   0.00015  -0.00003   0.00000   0.00000
  19        3PZ         0.00000   0.00005   0.00001   0.00000   0.00000
  20 3   H  1S          0.00000   0.01026   0.00137   0.00000  -0.00276
  21        2S          0.00000   0.00092   0.00008   0.00000  -0.01259
  22        3PX         0.00000   0.00000   0.00000   0.00000   0.00000
  23        3PY         0.00000   0.00015  -0.00003   0.00000   0.00094
  24        3PZ         0.00000   0.00005   0.00001   0.00000   0.00000
                          16        17        18        19        20
  16        2S          0.05439
  17        3PX         0.00000   0.00000
  18        3PY         0.00000   0.00000   0.00175
  19        3PZ         0.00000   0.00000   0.00000   0.00117
  20 3   H  1S         -0.01259   0.00000   0.00094   0.00000   0.37558
  21        2S         -0.01479   0.00000   0.00016   0.00000   0.09146
  22        3PX         0.00000   0.00000   0.00000   0.00000   0.00000
  23        3PY         0.00016   0.00000   0.00020   0.00000   0.00000
  24        3PZ         0.00000   0.00000   0.00000   0.00000   0.00000
                          21        22        23        24
  21        2S          0.05439
  22        3PX         0.00000   0.00000
  23        3PY         0.00000   0.00000   0.00175
  24        3PZ         0.00000   0.00000   0.00000   0.00117
     Gross orbital populations:
                           1
   1 1   C  1S          1.99898
   2        2S          0.79215
   3        3S          0.81333
   4        4PX         0.00000
   5        4PY         0.68899
   6        4PZ         0.86486
   7        5PX         0.00000
   8        5PY         0.30301
   9        5PZ         0.61980
  10        6D 0        0.00381
  11        6D+1        0.00000
  12        6D-1        0.02715
  13        6D+2        0.00316
  14        6D-2        0.00000
  15 2   H  1S          0.74634
  16        2S          0.16611
  17        3PX         0.00000
  18        3PY         0.01655
  19        3PZ         0.01338
  20 3   H  1S          0.74634
  21        2S          0.16611
  22        3PX         0.00000
  23        3PY         0.01655
  24        3PZ         0.01338
          Condensed to atoms (all electrons):
               1          2          3
     1  C    5.381443   0.366900   0.366900
     2  H    0.366900   0.615811  -0.040333
     3  H    0.366900  -0.040333   0.615811
 Mulliken charges:
               1
     1  C   -0.115243
     2  H    0.057622
     3  H    0.057622
 Sum of Mulliken charges =   0.00000
 Mulliken charges with hydrogens summed into heavy atoms:
               1
     1  C    0.000000
 Electronic spatial extent (au):  <R**2>=             24.6241
 Charge=              0.0000 electrons
 Dipole moment (field-independent basis, Debye):
    X=              0.0000    Y=              0.0000    Z=              1.9566  Tot=              1.9566
 Quadrupole moment (field-independent basis, Debye-Ang):
   XX=             -6.1415   YY=             -7.1100   ZZ=             -9.1642
   XY=              0.0000   XZ=              0.0000   YZ=              0.0000
 Traceless Quadrupole moment (field-independent basis, Debye-Ang):
   XX=              1.3305   YY=              0.3619   ZZ=             -1.6923
   XY=              0.0000   XZ=              0.0000   YZ=              0.0000
 Octapole moment (field-independent basis, Debye-Ang**2):
  XXX=              0.0000  YYY=              0.0000  ZZZ=              2.3159  XYY=              0.0000
  XXY=              0.0000  XXZ=              0.3288  XZZ=              0.0000  YZZ=              0.0000
  YYZ=              1.0697  XYZ=              0.0000
 Hexadecapole moment (field-independent basis, Debye-Ang**3):
 XXXX=             -5.2354 YYYY=            -14.2603 ZZZZ=            -15.5383 XXXY=              0.0000
 XXXZ=              0.0000 YYYX=              0.0000 YYYZ=              0.0000 ZZZX=              0.0000
 ZZZY=              0.0000 XXYY=             -3.4708 XXZZ=             -3.4793 YYZZ=             -4.5596
 XXYZ=              0.0000 YYXZ=              0.0000 ZZXY=              0.0000
 N-N= 6.033775315791D+00 E-N=-1.023970533828D+02  KE= 3.883035498139D+01
 Orbital energies and kinetic energies (alpha):
                                 1                 2
   1         O               -11.293231         16.040403
   2         O                -0.889115          1.257060
   3         O                -0.558797          0.962911
   4         O                -0.390363          1.154803
   5         V                 0.062910          0.797099
   6         V                 0.195605          0.605714
   7         V                 0.260692          0.626269
   8         V                 0.586387          1.066740
   9         V                 0.694590          1.621536
  10         V                 0.738246          2.216463
  11         V                 0.784000          1.846256
  12         V                 0.864435          2.133187
  13         V                 1.009359          2.007480
  14         V                 1.203318          1.728223
  15         V                 1.214794          1.722685
  16         V                 1.289045          1.805925
  17         V                 1.748387          2.338493
  18         V                 1.764494          2.147610
  19         V                 1.936901          2.556035
  20         V                 2.009603          2.431405
  21         V                 2.026576          2.466873
  22         V                 2.312419          2.753827
  23         V                 2.657551          4.137626
  24         V                 2.750029          4.245836
 Total kinetic energy from orbitals= 3.883035498139D+01
 No NMR shielding tensors so no spin-rotation constants.
 Leave Link  601 at Tue Dec 19 12:52:38 2023, MaxMem=  1342177280 cpu:               0.2 elap:               0.0
 (Enter /home/yingjin/Quantum_Soft/g16/l9999.exe)
 1\1\GINC-RYZEN7\SP\RHF\CC-pVDZ\C1H2\YINGJIN\19-Dec-2023\0\\#p HF cc-pv
 dz nosym pop=full\\geom\\0,1\C,0,0.,0.,-0.13375\H,0,0.,0.86110687,0.56
 493031\H,0,0.,-0.86110687,0.56493031\\Version=ES64L-G16RevA.03\HF=-38.
 8810791\RMSD=5.212e-09\Dipole=0.,0.,0.7697786\Quadrupole=0.9891584,0.2
 690508,-1.2582092,0.,0.,0.\PG=C02V [C2(C1),SGV(H2)]\\@


 SIGN SEEN IN A RESTAURANT-
 WE RESERVE THE RIGHT TO SERVE REFUSE TO ANYONE.
 Job cpu time:       0 days  0 hours  0 minutes  1.6 seconds.
 Elapsed time:       0 days  0 hours  0 minutes  0.4 seconds.
 File lengths (MBytes):  RWF=      6 Int=      0 D2E=      0 Chk=      1 Scr=      1
 Normal termination of Gaussian 16 at Tue Dec 19 12:52:38 2023.
