 Entering Gaussian System, Link 0=g16
 Input=GEOMH2-test-dz.gjf
 Output=GEOMH2-test-dz.log
 Initial command:
 /home/yingjin/Quantum_Soft/g16/l1.exe "/media/workdir/g16tmp/Gau-1791723.inp" -scrdir="/media/workdir/g16tmp/"
 Entering Link 1 = /home/yingjin/Quantum_Soft/g16/l1.exe PID=   1791725.
  
 Copyright (c) 1988,1990,1992,1993,1995,1998,2003,2009,2016,
            Gaussian, Inc.  All Rights Reserved.
  
 This is part of the Gaussian(R) 16 program.  It is based on
 the Gaussian(R) 09 system (copyright 2009, Gaussian, Inc.),
 the Gaussian(R) 03 system (copyright 2003, Gaussian, Inc.),
 the Gaussian(R) 98 system (copyright 1998, Gaussian, Inc.),
 the Gaussian(R) 94 system (copyright 1995, Gaussian, Inc.),
 the Gaussian 92(TM) system (copyright 1992, Gaussian, Inc.),
 the Gaussian 90(TM) system (copyright 1990, Gaussian, Inc.),
 the Gaussian 88(TM) system (copyright 1988, Gaussian, Inc.),
 the Gaussian 86(TM) system (copyright 1986, Carnegie Mellon
 University), and the Gaussian 82(TM) system (copyright 1983,
 Carnegie Mellon University). Gaussian is a federally registered
 trademark of Gaussian, Inc.
  
 This software contains proprietary and confidential information,
 including trade secrets, belonging to Gaussian, Inc.
  
 This software is provided under written license and may be
 used, copied, transmitted, or stored only in accord with that
 written license.
  
 The following legend is applicable only to US Government
 contracts under FAR:
  
                    RESTRICTED RIGHTS LEGEND
  
 Use, reproduction and disclosure by the US Government is
 subject to restrictions as set forth in subparagraphs (a)
 and (c) of the Commercial Computer Software - Restricted
 Rights clause in FAR 52.227-19.
  
 Gaussian, Inc.
 340 Quinnipiac St., Bldg. 40, Wallingford CT 06492
  
  
 ---------------------------------------------------------------
 Warning -- This program may not be used in any manner that
 competes with the business of Gaussian, Inc. or will provide
 assistance to any competitor of Gaussian, Inc.  The licensee
 of this program is prohibited from giving any competitor of
 Gaussian, Inc. access to this program.  By using this program,
 the user acknowledges that Gaussian, Inc. is engaged in the
 business of creating and licensing software in the field of
 computational chemistry and represents and warrants to the
 licensee that it is not a competitor of Gaussian, Inc. and that
 it will not use this program in any manner prohibited above.
 ---------------------------------------------------------------
  

 Cite this work as:
 Gaussian 16, Revision A.03,
 M. J. Frisch, G. W. Trucks, H. B. Schlegel, G. E. Scuseria, 
 M. A. Robb, J. R. Cheeseman, G. Scalmani, V. Barone, 
 G. A. Petersson, H. Nakatsuji, X. Li, M. Caricato, A. V. Marenich, 
 J. Bloino, B. G. Janesko, R. Gomperts, B. Mennucci, H. P. Hratchian, 
 J. V. Ortiz, A. F. Izmaylov, J. L. Sonnenberg, D. Williams-Young, 
 F. Ding, F. Lipparini, F. Egidi, J. Goings, B. Peng, A. Petrone, 
 T. Henderson, D. Ranasinghe, V. G. Zakrzewski, J. Gao, N. Rega, 
 G. Zheng, W. Liang, M. Hada, M. Ehara, K. Toyota, R. Fukuda, 
 J. Hasegawa, M. Ishida, T. Nakajima, Y. Honda, O. Kitao, H. Nakai, 
 T. Vreven, K. Throssell, J. A. Montgomery, Jr., J. E. Peralta, 
 F. Ogliaro, M. J. Bearpark, J. J. Heyd, E. N. Brothers, K. N. Kudin, 
 V. N. Staroverov, T. A. Keith, R. Kobayashi, J. Normand, 
 K. Raghavachari, A. P. Rendell, J. C. Burant, S. S. Iyengar, 
 J. Tomasi, M. Cossi, J. M. Millam, M. Klene, C. Adamo, R. Cammi, 
 J. W. Ochterski, R. L. Martin, K. Morokuma, O. Farkas, 
 J. B. Foresman, and D. J. Fox, Gaussian, Inc., Wallingford CT, 2016.
 
 ******************************************
 Gaussian 16:  ES64L-G16RevA.03 25-Dec-2016
                27-Dec-2023 
 ******************************************
 %nproc=4
 Will use up to    4 processors via shared memory.
 %mem = 10GB
 %chk = geomh2-dz.chk
 -------------------------------
 #p HF cc-pvdz 5d nosym pop=full
 -------------------------------
 1/38=1,172=1/1;
 2/12=2,15=1,17=6,18=5,40=1/2;
 3/5=16,8=1,11=9,25=1,30=1/1,2,3;
 4//1;
 5/5=2,38=5/2;
 6/7=3,28=1/1;
 99/5=1,9=1/99;
 Leave Link    1 at Wed Dec 27 12:41:30 2023, MaxMem=  1342177280 cpu:               0.0 elap:               0.0
 (Enter /home/yingjin/Quantum_Soft/g16/l101.exe)
 ----
 geom
 ----
 Symbolic Z-matrix:
 Charge =  0 Multiplicity = 1
 H                     0.        0.        0.375 
 H                     0.        0.       -0.375 
 
 ITRead=  0  0
 MicOpt= -1 -1
 NAtoms=      2 NQM=        2 NQMF=       0 NMMI=      0 NMMIF=      0
                NMic=       0 NMicF=      0.
                    Isotopes and Nuclear Properties:
 (Nuclear quadrupole moments (NQMom) in fm**2, nuclear magnetic moments (NMagM)
  in nuclear magnetons)

  Atom         1           2
 IAtWgt=           1           1
 AtmWgt=   1.0078250   1.0078250
 NucSpn=           1           1
 AtZEff=   0.0000000   0.0000000
 NQMom=    0.0000000   0.0000000
 NMagM=    2.7928460   2.7928460
 AtZNuc=   1.0000000   1.0000000
 Leave Link  101 at Wed Dec 27 12:41:30 2023, MaxMem=  1342177280 cpu:               0.3 elap:               0.1
 (Enter /home/yingjin/Quantum_Soft/g16/l202.exe)
                          Input orientation:                          
 ---------------------------------------------------------------------
 Center     Atomic      Atomic             Coordinates (Angstroms)
 Number     Number       Type             X           Y           Z
 ---------------------------------------------------------------------
      1          1           0        0.000000    0.000000    0.375000
      2          1           0        0.000000    0.000000   -0.375000
 ---------------------------------------------------------------------
 Symmetry turned off by external request.
 Stoichiometry    H2
 Framework group  D*H[C*(H.H)]
 Deg. of freedom     1
 Full point group                 D*H     NOp   8
 Rotational constants (GHZ):           0.0000000        1782.9514826        1782.9514826
 Leave Link  202 at Wed Dec 27 12:41:30 2023, MaxMem=  1342177280 cpu:               0.0 elap:               0.0
 (Enter /home/yingjin/Quantum_Soft/g16/l301.exe)
 Standard basis: CC-pVDZ (5D, 7F)
 Ernie: Thresh=  0.10000D-02 Tol=  0.10000D-05 Strict=F.
    10 basis functions,    14 primitive gaussians,    10 cartesian basis functions
     1 alpha electrons        1 beta electrons
       nuclear repulsion energy         0.7055696146 Hartrees.
 IExCor=    0 DFT=F Ex=HF Corr=None ExCW=0 ScaHFX=  1.000000
 ScaDFX=  1.000000  1.000000  1.000000  1.000000 ScalE2=  1.000000  1.000000
 IRadAn=      5 IRanWt=     -1 IRanGd=            0 ICorTp=0 IEmpDi=  4
 NAtoms=    2 NActive=    2 NUniq=    2 SFac= 1.00D+00 NAtFMM=   60 NAOKFM=F Big=F
 Integral buffers will be    131072 words long.
 Raffenetti 1 integral format.
 Two-electron integral symmetry is turned off.
 Leave Link  301 at Wed Dec 27 12:41:30 2023, MaxMem=  1342177280 cpu:               0.1 elap:               0.0
 (Enter /home/yingjin/Quantum_Soft/g16/l302.exe)
 NPDir=0 NMtPBC=     1 NCelOv=     1 NCel=       1 NClECP=     1 NCelD=      1
         NCelK=      1 NCelE2=     1 NClLst=     1 CellRange=     0.0.
 One-electron integrals computed using PRISM.
 NBasis=    10 RedAO= T EigKep=  4.61D-02  NBF=    10
 NBsUse=    10 1.00D-06 EigRej= -1.00D+00 NBFU=    10
 Leave Link  302 at Wed Dec 27 12:41:31 2023, MaxMem=  1342177280 cpu:               0.2 elap:               0.0
 (Enter /home/yingjin/Quantum_Soft/g16/l303.exe)
 DipDrv:  MaxL=1.
 Leave Link  303 at Wed Dec 27 12:41:31 2023, MaxMem=  1342177280 cpu:               0.1 elap:               0.0
 (Enter /home/yingjin/Quantum_Soft/g16/l401.exe)
 ExpMin= 1.22D-01 ExpMax= 1.30D+01 ExpMxC= 1.30D+01 IAcc=3 IRadAn=         5 AccDes= 0.00D+00
 Harris functional with IExCor=  205 and IRadAn=       5 diagonalized for initial guess.
 HarFok:  IExCor=  205 AccDes= 0.00D+00 IRadAn=         5 IDoV= 1 UseB2=F ITyADJ=14
 ICtDFT=  3500011 ScaDFX=  1.000000  1.000000  1.000000  1.000000
 FoFCou: FMM=F IPFlag=           0 FMFlag=      100000 FMFlg1=           0
         NFxFlg=           0 DoJE=T BraDBF=F KetDBF=T FulRan=T
         wScrn=  0.000000 ICntrl=       500 IOpCl=  0 I1Cent=   200000004 NGrid=           0
         NMat0=    1 NMatS0=      1 NMatT0=    0 NMatD0=    1 NMtDS0=    0 NMtDT0=    0
 Symmetry not used in FoFCou.
 Harris En= -1.18079611945400    
 JPrj=0 DoOrth=F DoCkMO=F.
 Leave Link  401 at Wed Dec 27 12:41:31 2023, MaxMem=  1342177280 cpu:               0.2 elap:               0.1
 (Enter /home/yingjin/Quantum_Soft/g16/l502.exe)
 Keep R1 ints in memory in canonical form, NReq=803587.
 FoFCou: FMM=F IPFlag=           0 FMFlag=           0 FMFlg1=           0
         NFxFlg=           0 DoJE=F BraDBF=F KetDBF=F FulRan=T
         wScrn=  0.000000 ICntrl=       600 IOpCl=  0 I1Cent=           0 NGrid=           0
         NMat0=    1 NMatS0=     55 NMatT0=    0 NMatD0=    1 NMtDS0=    0 NMtDT0=    0
 Symmetry not used in FoFCou.
 Two-electron integral symmetry not used.
 Closed shell SCF:
 Using DIIS extrapolation, IDIIS=  1040.
 NGot=  1342177280 LenX=  1342174416 LenY=  1342173534
 Requested convergence on RMS density matrix=1.00D-08 within 128 cycles.
 Requested convergence on MAX density matrix=1.00D-06.
 Requested convergence on             energy=1.00D-06.
 No special actions if energy rises.

 Cycle   1  Pass 1  IDiag  1:
 E= -1.12651590286247    
 DIIS: error= 1.13D-02 at cycle   1 NSaved=   1.
 NSaved= 1 IEnMin= 1 EnMin= -1.12651590286247     IErMin= 1 ErrMin= 1.13D-02
 ErrMax= 1.13D-02  0.00D+00 EMaxC= 1.00D-01 BMatC= 9.81D-04 BMatP= 9.81D-04
 IDIUse=3 WtCom= 8.87D-01 WtEn= 1.13D-01
 Coeff-Com:  0.100D+01
 Coeff-En:   0.100D+01
 Coeff:      0.100D+01
 Gap=     0.796 Goal=   None    Shift=    0.000
 GapD=    0.796 DampG=2.000 DampE=0.500 DampFc=1.0000 IDamp=-1.
 RMSDP=3.82D-03 MaxDP=1.60D-02              OVMax= 2.91D-02

 Cycle   2  Pass 1  IDiag  1:
 E= -1.12866623772911     Delta-E=       -0.002150334867 Rises=F Damp=F
 DIIS: error= 2.38D-03 at cycle   2 NSaved=   2.
 NSaved= 2 IEnMin= 2 EnMin= -1.12866623772911     IErMin= 2 ErrMin= 2.38D-03
 ErrMax= 2.38D-03  0.00D+00 EMaxC= 1.00D-01 BMatC= 3.35D-05 BMatP= 9.81D-04
 IDIUse=3 WtCom= 9.76D-01 WtEn= 2.38D-02
 Coeff-Com: -0.216D+00 0.122D+01
 Coeff-En:   0.000D+00 0.100D+01
 Coeff:     -0.211D+00 0.121D+01
 Gap=     0.785 Goal=   None    Shift=    0.000
 RMSDP=8.83D-04 MaxDP=3.76D-03 DE=-2.15D-03 OVMax= 6.53D-03

 Cycle   3  Pass 1  IDiag  1:
 E= -1.12874305627375     Delta-E=       -0.000076818545 Rises=F Damp=F
 DIIS: error= 1.11D-04 at cycle   3 NSaved=   3.
 NSaved= 3 IEnMin= 3 EnMin= -1.12874305627375     IErMin= 3 ErrMin= 1.11D-04
 ErrMax= 1.11D-04  0.00D+00 EMaxC= 1.00D-01 BMatC= 7.08D-08 BMatP= 3.35D-05
 IDIUse=3 WtCom= 9.99D-01 WtEn= 1.11D-03
 Coeff-Com:  0.425D-01-0.245D+00 0.120D+01
 Coeff-En:   0.000D+00 0.000D+00 0.100D+01
 Coeff:      0.425D-01-0.245D+00 0.120D+01
 Gap=     0.785 Goal=   None    Shift=    0.000
 RMSDP=2.40D-05 MaxDP=9.96D-05 DE=-7.68D-05 OVMax= 1.56D-04

 Cycle   4  Pass 1  IDiag  1:
 E= -1.12874313470115     Delta-E=       -0.000000078427 Rises=F Damp=F
 DIIS: error= 1.69D-06 at cycle   4 NSaved=   4.
 NSaved= 4 IEnMin= 4 EnMin= -1.12874313470115     IErMin= 4 ErrMin= 1.69D-06
 ErrMax= 1.69D-06  0.00D+00 EMaxC= 1.00D-01 BMatC= 2.28D-11 BMatP= 7.08D-08
 IDIUse=1 WtCom= 1.00D+00 WtEn= 0.00D+00
 Coeff-Com: -0.220D-05-0.859D-03 0.348D-02 0.997D+00
 Coeff:     -0.220D-05-0.859D-03 0.348D-02 0.997D+00
 Gap=     0.785 Goal=   None    Shift=    0.000
 RMSDP=7.10D-07 MaxDP=3.00D-06 DE=-7.84D-08 OVMax= 5.42D-06

 Cycle   5  Pass 1  IDiag  1:
 E= -1.12874313475269     Delta-E=       -0.000000000052 Rises=F Damp=F
 DIIS: error= 1.69D-09 at cycle   5 NSaved=   5.
 NSaved= 5 IEnMin= 5 EnMin= -1.12874313475269     IErMin= 5 ErrMin= 1.69D-09
 ErrMax= 1.69D-09  0.00D+00 EMaxC= 1.00D-01 BMatC= 2.21D-17 BMatP= 2.28D-11
 IDIUse=1 WtCom= 1.00D+00 WtEn= 0.00D+00
 Large coefficients: NSaved=  5 BigCof=    0.00 CofMax=   10.00 Det=-3.30D-27
 Inversion failed.  Reducing to  4 matrices.
 Coeff-Com: -0.599D-08 0.304D-06 0.986D-03 0.999D+00
 Coeff:     -0.599D-08 0.304D-06 0.986D-03 0.999D+00
 Gap=     0.785 Goal=   None    Shift=    0.000
 RMSDP=7.01D-10 MaxDP=2.96D-09 DE=-5.15D-11 OVMax= 5.34D-09

 SCF Done:  E(RHF) =  -1.12874313475     A.U. after    5 cycles
            NFock=  5  Conv=0.70D-09     -V/T= 2.0372
 KE= 1.088234409472D+00 PE=-3.578046910486D+00 EE= 6.554997517018D-01
 Leave Link  502 at Wed Dec 27 12:41:31 2023, MaxMem=  1342177280 cpu:               0.1 elap:               0.0
 (Enter /home/yingjin/Quantum_Soft/g16/l601.exe)
 Copying SCF densities to generalized density rwf, IOpCl= 0 IROHF=0.

 **********************************************************************

            Population analysis using the SCF density.

 **********************************************************************

 Alpha  occ. eigenvalues --   -0.58941
 Alpha virt. eigenvalues --    0.19551   0.48172   0.93020   1.29182   1.29182
 Alpha virt. eigenvalues --    1.94731   2.03672   2.03672   3.55050
     Molecular Orbital Coefficients:
                           1         2         3         4         5
                           O         V         V         V         V
     Eigenvalues --    -0.58941   0.19551   0.48172   0.93020   1.29182
   1 1   H  1S          0.40250   0.15209  -0.70322  -0.77324   0.00000
   2        2S          0.17610   1.92892   0.72671   1.61099   0.00000
   3        3PX         0.00000   0.00000   0.00000   0.00000   0.35890
   4        3PY         0.00000   0.00000   0.00000   0.00000   0.45674
   5        3PZ        -0.02236  -0.01385   0.01308  -0.40166   0.00000
   6 2   H  1S          0.40250  -0.15209  -0.70322   0.77324   0.00000
   7        2S          0.17610  -1.92892   0.72671  -1.61099   0.00000
   8        3PX         0.00000   0.00000   0.00000   0.00000   0.35890
   9        3PY         0.00000   0.00000   0.00000   0.00000   0.45674
  10        3PZ         0.02236  -0.01385  -0.01308  -0.40166   0.00000
                           6         7         8         9        10
                           V         V         V         V         V
     Eigenvalues --     1.29182   1.94731   2.03672   2.03672   3.55050
   1 1   H  1S          0.00000   0.44201   0.00000   0.00000   2.58593
   2        2S          0.00000  -0.22023   0.00000   0.00000   0.06883
   3        3PX         0.45674   0.00000   0.87704  -0.44241   0.00000
   4        3PY        -0.35890   0.00000   0.44241   0.87704   0.00000
   5        3PZ         0.00000   0.72068   0.00000   0.00000  -1.99909
   6 2   H  1S          0.00000   0.44201   0.00000   0.00000  -2.58593
   7        2S          0.00000  -0.22023   0.00000   0.00000  -0.06883
   8        3PX         0.45674   0.00000  -0.87704   0.44241   0.00000
   9        3PY        -0.35890   0.00000  -0.44241  -0.87704   0.00000
  10        3PZ         0.00000  -0.72068   0.00000   0.00000  -1.99909
     Density Matrix:
                           1         2         3         4         5
   1 1   H  1S          0.32402
   2        2S          0.14176   0.06202
   3        3PX         0.00000   0.00000   0.00000
   4        3PY         0.00000   0.00000   0.00000   0.00000
   5        3PZ        -0.01800  -0.00787   0.00000   0.00000   0.00100
   6 2   H  1S          0.32402   0.14176   0.00000   0.00000  -0.01800
   7        2S          0.14176   0.06202   0.00000   0.00000  -0.00787
   8        3PX         0.00000   0.00000   0.00000   0.00000   0.00000
   9        3PY         0.00000   0.00000   0.00000   0.00000   0.00000
  10        3PZ         0.01800   0.00787   0.00000   0.00000  -0.00100
                           6         7         8         9        10
   6 2   H  1S          0.32402
   7        2S          0.14176   0.06202
   8        3PX         0.00000   0.00000   0.00000
   9        3PY         0.00000   0.00000   0.00000   0.00000
  10        3PZ         0.01800   0.00787   0.00000   0.00000   0.00100
    Full Mulliken population analysis:
                           1         2         3         4         5
   1 1   H  1S          0.32402
   2        2S          0.09709   0.06202
   3        3PX         0.00000   0.00000   0.00000
   4        3PY         0.00000   0.00000   0.00000   0.00000
   5        3PZ         0.00000   0.00000   0.00000   0.00000   0.00100
   6 2   H  1S          0.18231   0.07975   0.00000   0.00000   0.00963
   7        2S          0.07975   0.05487   0.00000   0.00000   0.00130
   8        3PX         0.00000   0.00000   0.00000   0.00000   0.00000
   9        3PY         0.00000   0.00000   0.00000   0.00000   0.00000
  10        3PZ         0.00963   0.00130   0.00000   0.00000   0.00022
                           6         7         8         9        10
   6 2   H  1S          0.32402
   7        2S          0.09709   0.06202
   8        3PX         0.00000   0.00000   0.00000
   9        3PY         0.00000   0.00000   0.00000   0.00000
  10        3PZ         0.00000   0.00000   0.00000   0.00000   0.00100
     Gross orbital populations:
                           1
   1 1   H  1S          0.69281
   2        2S          0.29504
   3        3PX         0.00000
   4        3PY         0.00000
   5        3PZ         0.01216
   6 2   H  1S          0.69281
   7        2S          0.29504
   8        3PX         0.00000
   9        3PY         0.00000
  10        3PZ         0.01216
          Condensed to atoms (all electrons):
               1          2
     1  H    0.581217   0.418783
     2  H    0.418783   0.581217
 Mulliken charges:
               1
     1  H    0.000000
     2  H    0.000000
 Sum of Mulliken charges =   0.00000
 Mulliken charges with hydrogens summed into heavy atoms:
               1
 Electronic spatial extent (au):  <R**2>=              5.1225
 Charge=              0.0000 electrons
 Dipole moment (field-independent basis, Debye):
    X=              0.0000    Y=              0.0000    Z=              0.0000  Tot=              0.0000
 Quadrupole moment (field-independent basis, Debye-Ang):
   XX=             -2.0488   YY=             -2.0488   ZZ=             -1.4415
   XY=              0.0000   XZ=              0.0000   YZ=              0.0000
 Traceless Quadrupole moment (field-independent basis, Debye-Ang):
   XX=             -0.2024   YY=             -0.2024   ZZ=              0.4048
   XY=              0.0000   XZ=              0.0000   YZ=              0.0000
 Octapole moment (field-independent basis, Debye-Ang**2):
  XXX=              0.0000  YYY=              0.0000  ZZZ=              0.0000  XYY=              0.0000
  XXY=              0.0000  XXZ=              0.0000  XZZ=              0.0000  YZZ=              0.0000
  YYZ=              0.0000  XYZ=              0.0000
 Hexadecapole moment (field-independent basis, Debye-Ang**3):
 XXXX=             -1.9397 YYYY=             -1.9397 ZZZZ=             -2.7856 XXXY=              0.0000
 XXXZ=              0.0000 YYYX=              0.0000 YYYZ=              0.0000 ZZZX=              0.0000
 ZZZY=              0.0000 XXYY=             -0.6466 XXZZ=             -0.8057 YYZZ=             -0.8057
 XXYZ=              0.0000 YYXZ=              0.0000 ZZXY=              0.0000
 N-N= 7.055696145600D-01 E-N=-3.578046913880D+00  KE= 1.088234409472D+00
 Orbital energies and kinetic energies (alpha):
                                 1                 2
   1         O                -0.589406          0.544117
   2         V                 0.195515          0.342586
   3         V                 0.481723          0.885511
   4         V                 0.930201          1.643369
   5         V                 1.291817          1.644895
   6         V                 1.291817          1.644895
   7         V                 1.947308          2.341713
   8         V                 2.036724          2.311099
   9         V                 2.036724          2.311099
  10         V                 3.550502          4.563635
 Total kinetic energy from orbitals= 1.088234409472D+00
 No NMR shielding tensors so no spin-rotation constants.
 Leave Link  601 at Wed Dec 27 12:41:31 2023, MaxMem=  1342177280 cpu:               0.1 elap:               0.0
 (Enter /home/yingjin/Quantum_Soft/g16/l9999.exe)
 1\1\GINC-RYZEN7\SP\RHF\CC-pVDZ\H2\YINGJIN\27-Dec-2023\0\\#p HF cc-pvdz
  5d nosym pop=full\\geom\\0,1\H,0,0.,0.,0.375\H,0,0.,0.,-0.375\\Versio
 n=ES64L-G16RevA.03\HF=-1.1287431\RMSD=7.009e-10\Dipole=0.,0.,0.\Quadru
 pole=-0.1504947,-0.1504947,0.3009895,0.,0.,0.\PG=D*H [C*(H1.H1)]\\@


 IF AT FIRST YOU DON'T SUCCEED, TRY, TRY AGAIN.
 THEN GIVE UP;
 THERE'S NO USE BEING A DAMN FOOL ABOUT IT.

                                 -- W. C. FIELDS
 Job cpu time:       0 days  0 hours  0 minutes  1.3 seconds.
 Elapsed time:       0 days  0 hours  0 minutes  0.3 seconds.
 File lengths (MBytes):  RWF=      6 Int=      0 D2E=      0 Chk=      1 Scr=      1
 Normal termination of Gaussian 16 at Wed Dec 27 12:41:31 2023.
