 Entering Gaussian System, Link 0=g16
 Input=GEOM-test-qz.gjf
 Output=GEOM-test-qz.log
 Initial command:
 /home/yingjin/Quantum_Soft/g16/l1.exe "/media/workdir/g16tmp/Gau-1716150.inp" -scrdir="/media/workdir/g16tmp/"
 Entering Link 1 = /home/yingjin/Quantum_Soft/g16/l1.exe PID=   1716152.
  
 Copyright (c) 1988,1990,1992,1993,1995,1998,2003,2009,2016,
            Gaussian, Inc.  All Rights Reserved.
  
 This is part of the Gaussian(R) 16 program.  It is based on
 the Gaussian(R) 09 system (copyright 2009, Gaussian, Inc.),
 the Gaussian(R) 03 system (copyright 2003, Gaussian, Inc.),
 the Gaussian(R) 98 system (copyright 1998, Gaussian, Inc.),
 the Gaussian(R) 94 system (copyright 1995, Gaussian, Inc.),
 the Gaussian 92(TM) system (copyright 1992, Gaussian, Inc.),
 the Gaussian 90(TM) system (copyright 1990, Gaussian, Inc.),
 the Gaussian 88(TM) system (copyright 1988, Gaussian, Inc.),
 the Gaussian 86(TM) system (copyright 1986, Carnegie Mellon
 University), and the Gaussian 82(TM) system (copyright 1983,
 Carnegie Mellon University). Gaussian is a federally registered
 trademark of Gaussian, Inc.
  
 This software contains proprietary and confidential information,
 including trade secrets, belonging to Gaussian, Inc.
  
 This software is provided under written license and may be
 used, copied, transmitted, or stored only in accord with that
 written license.
  
 The following legend is applicable only to US Government
 contracts under FAR:
  
                    RESTRICTED RIGHTS LEGEND
  
 Use, reproduction and disclosure by the US Government is
 subject to restrictions as set forth in subparagraphs (a)
 and (c) of the Commercial Computer Software - Restricted
 Rights clause in FAR 52.227-19.
  
 Gaussian, Inc.
 340 Quinnipiac St., Bldg. 40, Wallingford CT 06492
  
  
 ---------------------------------------------------------------
 Warning -- This program may not be used in any manner that
 competes with the business of Gaussian, Inc. or will provide
 assistance to any competitor of Gaussian, Inc.  The licensee
 of this program is prohibited from giving any competitor of
 Gaussian, Inc. access to this program.  By using this program,
 the user acknowledges that Gaussian, Inc. is engaged in the
 business of creating and licensing software in the field of
 computational chemistry and represents and warrants to the
 licensee that it is not a competitor of Gaussian, Inc. and that
 it will not use this program in any manner prohibited above.
 ---------------------------------------------------------------
  

 Cite this work as:
 Gaussian 16, Revision A.03,
 M. J. Frisch, G. W. Trucks, H. B. Schlegel, G. E. Scuseria, 
 M. A. Robb, J. R. Cheeseman, G. Scalmani, V. Barone, 
 G. A. Petersson, H. Nakatsuji, X. Li, M. Caricato, A. V. Marenich, 
 J. Bloino, B. G. Janesko, R. Gomperts, B. Mennucci, H. P. Hratchian, 
 J. V. Ortiz, A. F. Izmaylov, J. L. Sonnenberg, D. Williams-Young, 
 F. Ding, F. Lipparini, F. Egidi, J. Goings, B. Peng, A. Petrone, 
 T. Henderson, D. Ranasinghe, V. G. Zakrzewski, J. Gao, N. Rega, 
 G. Zheng, W. Liang, M. Hada, M. Ehara, K. Toyota, R. Fukuda, 
 J. Hasegawa, M. Ishida, T. Nakajima, Y. Honda, O. Kitao, H. Nakai, 
 T. Vreven, K. Throssell, J. A. Montgomery, Jr., J. E. Peralta, 
 F. Ogliaro, M. J. Bearpark, J. J. Heyd, E. N. Brothers, K. N. Kudin, 
 V. N. Staroverov, T. A. Keith, R. Kobayashi, J. Normand, 
 K. Raghavachari, A. P. Rendell, J. C. Burant, S. S. Iyengar, 
 J. Tomasi, M. Cossi, J. M. Millam, M. Klene, C. Adamo, R. Cammi, 
 J. W. Ochterski, R. L. Martin, K. Morokuma, O. Farkas, 
 J. B. Foresman, and D. J. Fox, Gaussian, Inc., Wallingford CT, 2016.
 
 ******************************************
 Gaussian 16:  ES64L-G16RevA.03 25-Dec-2016
                19-Dec-2023 
 ******************************************
 %nproc=4
 Will use up to    4 processors via shared memory.
 %mem = 10GB
 %chk = geom-qz.chk
 ----------------------------
 #p HF cc-pvqz nosym pop=full
 ----------------------------
 1/38=1,172=1/1;
 2/12=2,15=1,17=6,18=5,40=1/2;
 3/5=16,6=2,11=9,25=1,30=1/1,2,3;
 4//1;
 5/5=2,38=5/2;
 6/7=3,28=1/1;
 99/5=1,9=1/99;
 Leave Link    1 at Tue Dec 19 12:53:50 2023, MaxMem=  1342177280 cpu:               0.0 elap:               0.0
 (Enter /home/yingjin/Quantum_Soft/g16/l101.exe)
 ----
 geom
 ----
 Symbolic Z-matrix:
 Charge =  0 Multiplicity = 1
 C                     0.        0.       -0.13375 
 H                     0.        0.86111   0.56493 
 H                     0.       -0.86111   0.56493 
 
 ITRead=  0  0  0
 MicOpt= -1 -1 -1
 NAtoms=      3 NQM=        3 NQMF=       0 NMMI=      0 NMMIF=      0
                NMic=       0 NMicF=      0.
                    Isotopes and Nuclear Properties:
 (Nuclear quadrupole moments (NQMom) in fm**2, nuclear magnetic moments (NMagM)
  in nuclear magnetons)

  Atom         1           2           3
 IAtWgt=          12           1           1
 AtmWgt=  12.0000000   1.0078250   1.0078250
 NucSpn=           0           1           1
 AtZEff=   0.0000000   0.0000000   0.0000000
 NQMom=    0.0000000   0.0000000   0.0000000
 NMagM=    0.0000000   2.7928460   2.7928460
 AtZNuc=   6.0000000   1.0000000   1.0000000
 Leave Link  101 at Tue Dec 19 12:53:50 2023, MaxMem=  1342177280 cpu:               0.3 elap:               0.1
 (Enter /home/yingjin/Quantum_Soft/g16/l202.exe)
                          Input orientation:                          
 ---------------------------------------------------------------------
 Center     Atomic      Atomic             Coordinates (Angstroms)
 Number     Number       Type             X           Y           Z
 ---------------------------------------------------------------------
      1          6           0        0.000000    0.000000   -0.133750
      2          1           0        0.000000    0.861107    0.564930
      3          1           0        0.000000   -0.861107    0.564930
 ---------------------------------------------------------------------
                    Distance matrix (angstroms):
                    1          2          3
     1  C    0.000000
     2  H    1.108900   0.000000
     3  H    1.108900   1.722214   0.000000
 Symmetry turned off by external request.
 Stoichiometry    CH2
 Framework group  C2V[C2(C),SGV(H2)]
 Deg. of freedom     2
 Full point group                 C2V     NOp   4
 Rotational constants (GHZ):         599.8975003         338.1333075         216.2459103
 Leave Link  202 at Tue Dec 19 12:53:50 2023, MaxMem=  1342177280 cpu:               0.0 elap:               0.0
 (Enter /home/yingjin/Quantum_Soft/g16/l301.exe)
 Standard basis: CC-pVQZ (5D, 7F)
 Ernie: Thresh=  0.10000D-02 Tol=  0.10000D-05 Strict=F.
 Ernie:  3 primitive shells out of 57 were deleted.
   115 basis functions,   163 primitive gaussians,   140 cartesian basis functions
     4 alpha electrons        4 beta electrons
       nuclear repulsion energy         6.0337753158 Hartrees.
 IExCor=    0 DFT=F Ex=HF Corr=None ExCW=0 ScaHFX=  1.000000
 ScaDFX=  1.000000  1.000000  1.000000  1.000000 ScalE2=  1.000000  1.000000
 IRadAn=      5 IRanWt=     -1 IRanGd=            0 ICorTp=0 IEmpDi=  4
 NAtoms=    3 NActive=    3 NUniq=    3 SFac= 1.00D+00 NAtFMM=   60 NAOKFM=F Big=F
 Integral buffers will be    131072 words long.
 Raffenetti 1 integral format.
 Two-electron integral symmetry is turned off.
 Leave Link  301 at Tue Dec 19 12:53:50 2023, MaxMem=  1342177280 cpu:               0.1 elap:               0.0
 (Enter /home/yingjin/Quantum_Soft/g16/l302.exe)
 NPDir=0 NMtPBC=     1 NCelOv=     1 NCel=       1 NClECP=     1 NCelD=      1
         NCelK=      1 NCelE2=     1 NClLst=     1 CellRange=     0.0.
 One-electron integrals computed using PRISM.
 NBasis=   115 RedAO= T EigKep=  2.95D-04  NBF=   115
 NBsUse=   115 1.00D-06 EigRej= -1.00D+00 NBFU=   115
 Leave Link  302 at Tue Dec 19 12:53:50 2023, MaxMem=  1342177280 cpu:               0.3 elap:               0.1
 (Enter /home/yingjin/Quantum_Soft/g16/l303.exe)
 DipDrv:  MaxL=1.
 Leave Link  303 at Tue Dec 19 12:53:50 2023, MaxMem=  1342177280 cpu:               0.1 elap:               0.0
 (Enter /home/yingjin/Quantum_Soft/g16/l401.exe)
 ExpMin= 8.99D-02 ExpMax= 3.40D+04 ExpMxC= 3.27D+02 IAcc=3 IRadAn=         5 AccDes= 0.00D+00
 Harris functional with IExCor=  205 and IRadAn=       5 diagonalized for initial guess.
 HarFok:  IExCor=  205 AccDes= 0.00D+00 IRadAn=         5 IDoV= 1 UseB2=F ITyADJ=14
 ICtDFT=  3500011 ScaDFX=  1.000000  1.000000  1.000000  1.000000
 FoFCou: FMM=F IPFlag=           0 FMFlag=      100000 FMFlg1=           0
         NFxFlg=           0 DoJE=T BraDBF=F KetDBF=T FulRan=T
         wScrn=  0.000000 ICntrl=       500 IOpCl=  0 I1Cent=   200000004 NGrid=           0
         NMat0=    1 NMatS0=      1 NMatT0=    0 NMatD0=    1 NMtDS0=    0 NMtDT0=    0
 Symmetry not used in FoFCou.
 Harris En= -38.9298486460416    
 JPrj=0 DoOrth=F DoCkMO=F.
 Leave Link  401 at Tue Dec 19 12:53:50 2023, MaxMem=  1342177280 cpu:               0.7 elap:               0.2
 (Enter /home/yingjin/Quantum_Soft/g16/l502.exe)
 Keep R1 ints in memory in canonical form, NReq=26797561.
 FoFCou: FMM=F IPFlag=           0 FMFlag=           0 FMFlg1=           0
         NFxFlg=           0 DoJE=F BraDBF=F KetDBF=F FulRan=T
         wScrn=  0.000000 ICntrl=       600 IOpCl=  0 I1Cent=           0 NGrid=           0
         NMat0=    1 NMatS0=   6670 NMatT0=    0 NMatD0=    1 NMtDS0=    0 NMtDT0=    0
 Symmetry not used in FoFCou.
 Two-electron integral symmetry not used.
 Closed shell SCF:
 Using DIIS extrapolation, IDIIS=  1040.
 NGot=  1342177280 LenX=  1319888502 LenY=  1319868461
 Requested convergence on RMS density matrix=1.00D-08 within 128 cycles.
 Requested convergence on MAX density matrix=1.00D-06.
 Requested convergence on             energy=1.00D-06.
 No special actions if energy rises.

 Cycle   1  Pass 1  IDiag  1:
 E= -38.8663732098276    
 DIIS: error= 3.54D-02 at cycle   1 NSaved=   1.
 NSaved= 1 IEnMin= 1 EnMin= -38.8663732098276     IErMin= 1 ErrMin= 3.54D-02
 ErrMax= 3.54D-02  0.00D+00 EMaxC= 1.00D-01 BMatC= 6.68D-02 BMatP= 6.68D-02
 IDIUse=3 WtCom= 6.46D-01 WtEn= 3.54D-01
 Coeff-Com:  0.100D+01
 Coeff-En:   0.100D+01
 Coeff:      0.100D+01
 Gap=     0.484 Goal=   None    Shift=    0.000
 GapD=    0.484 DampG=2.000 DampE=0.500 DampFc=1.0000 IDamp=-1.
 RMSDP=9.68D-04 MaxDP=2.34D-02              OVMax= 6.89D-02

 Cycle   2  Pass 1  IDiag  1:
 E= -38.8934489511176     Delta-E=       -0.027075741290 Rises=F Damp=F
 DIIS: error= 7.62D-03 at cycle   2 NSaved=   2.
 NSaved= 2 IEnMin= 2 EnMin= -38.8934489511176     IErMin= 2 ErrMin= 7.62D-03
 ErrMax= 7.62D-03  0.00D+00 EMaxC= 1.00D-01 BMatC= 1.99D-03 BMatP= 6.68D-02
 IDIUse=3 WtCom= 9.24D-01 WtEn= 7.62D-02
 Coeff-Com:  0.216D-01 0.978D+00
 Coeff-En:   0.000D+00 0.100D+01
 Coeff:      0.199D-01 0.980D+00
 Gap=     0.445 Goal=   None    Shift=    0.000
 RMSDP=3.38D-04 MaxDP=1.49D-02 DE=-2.71D-02 OVMax= 1.93D-02

 Cycle   3  Pass 1  IDiag  1:
 E= -38.8949598617221     Delta-E=       -0.001510910605 Rises=F Damp=F
 DIIS: error= 1.70D-03 at cycle   3 NSaved=   3.
 NSaved= 3 IEnMin= 3 EnMin= -38.8949598617221     IErMin= 3 ErrMin= 1.70D-03
 ErrMax= 1.70D-03  0.00D+00 EMaxC= 1.00D-01 BMatC= 9.82D-05 BMatP= 1.99D-03
 IDIUse=3 WtCom= 9.83D-01 WtEn= 1.70D-02
 Coeff-Com: -0.165D-01 0.149D+00 0.867D+00
 Coeff-En:   0.000D+00 0.000D+00 0.100D+01
 Coeff:     -0.162D-01 0.147D+00 0.870D+00
 Gap=     0.438 Goal=   None    Shift=    0.000
 RMSDP=5.27D-05 MaxDP=1.47D-03 DE=-1.51D-03 OVMax= 4.25D-03

 Cycle   4  Pass 1  IDiag  1:
 E= -38.8950665639688     Delta-E=       -0.000106702247 Rises=F Damp=F
 DIIS: error= 2.24D-04 at cycle   4 NSaved=   4.
 NSaved= 4 IEnMin= 4 EnMin= -38.8950665639688     IErMin= 4 ErrMin= 2.24D-04
 ErrMax= 2.24D-04  0.00D+00 EMaxC= 1.00D-01 BMatC= 1.77D-06 BMatP= 9.82D-05
 IDIUse=3 WtCom= 9.98D-01 WtEn= 2.24D-03
 Coeff-Com:  0.393D-02-0.532D-01-0.245D+00 0.129D+01
 Coeff-En:   0.000D+00 0.000D+00 0.000D+00 0.100D+01
 Coeff:      0.392D-02-0.531D-01-0.244D+00 0.129D+01
 Gap=     0.438 Goal=   None    Shift=    0.000
 RMSDP=2.07D-05 MaxDP=8.87D-04 DE=-1.07D-04 OVMax= 1.43D-03

 Cycle   5  Pass 1  IDiag  1:
 E= -38.8950713190370     Delta-E=       -0.000004755068 Rises=F Damp=F
 DIIS: error= 5.95D-05 at cycle   5 NSaved=   5.
 NSaved= 5 IEnMin= 5 EnMin= -38.8950713190370     IErMin= 5 ErrMin= 5.95D-05
 ErrMax= 5.95D-05  0.00D+00 EMaxC= 1.00D-01 BMatC= 7.44D-08 BMatP= 1.77D-06
 IDIUse=1 WtCom= 1.00D+00 WtEn= 0.00D+00
 Coeff-Com: -0.598D-03 0.101D-01 0.462D-01-0.412D+00 0.136D+01
 Coeff:     -0.598D-03 0.101D-01 0.462D-01-0.412D+00 0.136D+01
 Gap=     0.439 Goal=   None    Shift=    0.000
 RMSDP=7.49D-06 MaxDP=2.88D-04 DE=-4.76D-06 OVMax= 4.84D-04

 Cycle   6  Pass 1  IDiag  1:
 E= -38.8950716082069     Delta-E=       -0.000000289170 Rises=F Damp=F
 DIIS: error= 7.08D-06 at cycle   6 NSaved=   6.
 NSaved= 6 IEnMin= 6 EnMin= -38.8950716082069     IErMin= 6 ErrMin= 7.08D-06
 ErrMax= 7.08D-06  0.00D+00 EMaxC= 1.00D-01 BMatC= 1.37D-09 BMatP= 7.44D-08
 IDIUse=1 WtCom= 1.00D+00 WtEn= 0.00D+00
 Coeff-Com:  0.802D-04-0.167D-02-0.798D-02 0.865D-01-0.395D+00 0.132D+01
 Coeff:      0.802D-04-0.167D-02-0.798D-02 0.865D-01-0.395D+00 0.132D+01
 Gap=     0.439 Goal=   None    Shift=    0.000
 RMSDP=2.39D-06 MaxDP=8.88D-05 DE=-2.89D-07 OVMax= 8.53D-05

 Cycle   7  Pass 1  IDiag  1:
 E= -38.8950716147108     Delta-E=       -0.000000006504 Rises=F Damp=F
 DIIS: error= 1.18D-06 at cycle   7 NSaved=   7.
 NSaved= 7 IEnMin= 7 EnMin= -38.8950716147108     IErMin= 7 ErrMin= 1.18D-06
 ErrMax= 1.18D-06  0.00D+00 EMaxC= 1.00D-01 BMatC= 3.83D-11 BMatP= 1.37D-09
 IDIUse=1 WtCom= 1.00D+00 WtEn= 0.00D+00
 Coeff-Com: -0.183D-04 0.420D-03 0.211D-02-0.249D-01 0.126D+00-0.498D+00
 Coeff-Com:  0.140D+01
 Coeff:     -0.183D-04 0.420D-03 0.211D-02-0.249D-01 0.126D+00-0.498D+00
 Coeff:      0.140D+01
 Gap=     0.439 Goal=   None    Shift=    0.000
 RMSDP=4.03D-07 MaxDP=1.60D-05 DE=-6.50D-09 OVMax= 1.23D-05

 Cycle   8  Pass 1  IDiag  1:
 E= -38.8950716148798     Delta-E=       -0.000000000169 Rises=F Damp=F
 DIIS: error= 2.74D-07 at cycle   8 NSaved=   8.
 NSaved= 8 IEnMin= 8 EnMin= -38.8950716148798     IErMin= 8 ErrMin= 2.74D-07
 ErrMax= 2.74D-07  0.00D+00 EMaxC= 1.00D-01 BMatC= 1.86D-12 BMatP= 3.83D-11
 IDIUse=1 WtCom= 1.00D+00 WtEn= 0.00D+00
 Coeff-Com:  0.480D-06-0.220D-04-0.124D-03 0.193D-02-0.133D-01 0.663D-01
 Coeff-Com: -0.369D+00 0.131D+01
 Coeff:      0.480D-06-0.220D-04-0.124D-03 0.193D-02-0.133D-01 0.663D-01
 Coeff:     -0.369D+00 0.131D+01
 Gap=     0.439 Goal=   None    Shift=    0.000
 RMSDP=3.48D-08 MaxDP=7.39D-07 DE=-1.69D-10 OVMax= 2.48D-06

 Cycle   9  Pass 1  IDiag  1:
 E= -38.8950716148868     Delta-E=       -0.000000000007 Rises=F Damp=F
 DIIS: error= 4.72D-08 at cycle   9 NSaved=   9.
 NSaved= 9 IEnMin= 9 EnMin= -38.8950716148868     IErMin= 9 ErrMin= 4.72D-08
 ErrMax= 4.72D-08  0.00D+00 EMaxC= 1.00D-01 BMatC= 5.53D-14 BMatP= 1.86D-12
 IDIUse=1 WtCom= 1.00D+00 WtEn= 0.00D+00
 Coeff-Com:  0.547D-06-0.103D-04-0.480D-04 0.495D-03-0.161D-02 0.524D-02
 Coeff-Com:  0.192D-01-0.251D+00 0.123D+01
 Coeff:      0.547D-06-0.103D-04-0.480D-04 0.495D-03-0.161D-02 0.524D-02
 Coeff:      0.192D-01-0.251D+00 0.123D+01
 Gap=     0.439 Goal=   None    Shift=    0.000
 RMSDP=1.11D-08 MaxDP=4.46D-07 DE=-7.06D-12 OVMax= 2.90D-07

 Cycle  10  Pass 1  IDiag  1:
 E= -38.8950716148871     Delta-E=        0.000000000000 Rises=F Damp=F
 DIIS: error= 9.21D-09 at cycle  10 NSaved=  10.
 NSaved=10 IEnMin=10 EnMin= -38.8950716148871     IErMin=10 ErrMin= 9.21D-09
 ErrMax= 9.21D-09  0.00D+00 EMaxC= 1.00D-01 BMatC= 1.79D-15 BMatP= 5.53D-14
 IDIUse=1 WtCom= 1.00D+00 WtEn= 0.00D+00
 Coeff-Com: -0.125D-06 0.244D-05 0.123D-04-0.134D-03 0.445D-03-0.175D-02
 Coeff-Com: -0.289D-02 0.662D-01-0.444D+00 0.138D+01
 Coeff:     -0.125D-06 0.244D-05 0.123D-04-0.134D-03 0.445D-03-0.175D-02
 Coeff:     -0.289D-02 0.662D-01-0.444D+00 0.138D+01
 Gap=     0.439 Goal=   None    Shift=    0.000
 RMSDP=1.61D-09 MaxDP=5.80D-08 DE=-2.70D-13 OVMax= 5.25D-08

 SCF Done:  E(RHF) =  -38.8950716149     A.U. after   10 cycles
            NFock= 10  Conv=0.16D-08     -V/T= 2.0008
 KE= 3.886312087870D+01 PE=-1.024314265393D+02 EE= 1.863945872990D+01
 Leave Link  502 at Tue Dec 19 12:53:51 2023, MaxMem=  1342177280 cpu:               2.5 elap:               0.7
 (Enter /home/yingjin/Quantum_Soft/g16/l601.exe)
 Copying SCF densities to generalized density rwf, IOpCl= 0 IROHF=0.

 **********************************************************************

            Population analysis using the SCF density.

 **********************************************************************

 Alpha  occ. eigenvalues --  -11.29174  -0.89227  -0.56435  -0.39633
 Alpha virt. eigenvalues --    0.04218   0.12226   0.18796   0.29082   0.32566
 Alpha virt. eigenvalues --    0.38138   0.42977   0.49522   0.51887   0.57051
 Alpha virt. eigenvalues --    0.57094   0.59895   0.79911   0.85030   0.85510
 Alpha virt. eigenvalues --    0.89426   0.91371   0.98840   1.13328   1.14004
 Alpha virt. eigenvalues --    1.43710   1.45345   1.53965   1.63794   1.79227
 Alpha virt. eigenvalues --    1.85331   1.85481   1.91679   1.98390   2.02728
 Alpha virt. eigenvalues --    2.04578   2.10391   2.12399   2.14390   2.17262
 Alpha virt. eigenvalues --    2.28636   2.37666   2.43181   2.45871   2.62155
 Alpha virt. eigenvalues --    2.62777   2.66021   2.66577   2.77188   2.83137
 Alpha virt. eigenvalues --    2.95991   3.30187   3.41343   3.47140   3.47471
 Alpha virt. eigenvalues --    3.51743   3.68472   3.85708   3.89687   5.07675
 Alpha virt. eigenvalues --    5.12467   5.26615   5.32051   5.32388   5.48166
 Alpha virt. eigenvalues --    5.56312   5.64528   5.73618   5.78547   5.97726
 Alpha virt. eigenvalues --    6.05200   6.07097   6.14949   6.16928   6.19335
 Alpha virt. eigenvalues --    6.25389   6.30063   6.42349   6.44163   6.47738
 Alpha virt. eigenvalues --    6.49252   6.51244   6.70005   6.86584   6.87167
 Alpha virt. eigenvalues --    6.96999   7.04781   7.35992   7.55188   7.68357
 Alpha virt. eigenvalues --    7.68654   7.81920   7.83550   7.88466   7.89872
 Alpha virt. eigenvalues --    7.98280   8.12416   8.36327   8.38374   8.45766
 Alpha virt. eigenvalues --    8.50881   8.62453   8.75839   8.78966   8.85051
 Alpha virt. eigenvalues --    8.87143   9.25433   9.94099   9.95138  10.03260
 Alpha virt. eigenvalues --   10.08747  10.39022  10.50075  11.13908  12.56063
 Alpha virt. eigenvalues --   24.29354
     Molecular Orbital Coefficients:
                           1         2         3         4         5
                           O         O         O         O         V
     Eigenvalues --   -11.29174  -0.89227  -0.56435  -0.39633   0.04218
   1 1   C  1S          0.62671  -0.11092   0.00000   0.05620   0.00000
   2        2S         -0.40786   0.18132   0.00000  -0.09580   0.00000
   3        3S          0.01758   0.21546   0.00000  -0.11932   0.00000
   4        4S         -0.00884   0.41716   0.00000  -0.29373   0.00000
   5        5S         -0.00041   0.13259   0.00000  -0.26952   0.00000
   6        6PX         0.00000   0.00000   0.00000   0.00000   0.10420
   7        6PY         0.00000   0.00000   0.11559   0.00000   0.00000
   8        6PZ         0.00248   0.03337   0.00000   0.13115   0.00000
   9        7PX         0.00000   0.00000   0.00000   0.00000   0.22895
  10        7PY         0.00000   0.00000   0.22646   0.00000   0.00000
  11        7PZ        -0.00101   0.07155   0.00000   0.25410   0.00000
  12        8PX         0.00000   0.00000   0.00000   0.00000   0.22263
  13        8PY         0.00000   0.00000   0.24736   0.00000   0.00000
  14        8PZ        -0.00246   0.07137   0.00000   0.32373   0.00000
  15        9PX         0.00000   0.00000   0.00000   0.00000   0.65271
  16        9PY         0.00000   0.00000   0.07872   0.00000   0.00000
  17        9PZ        -0.00047   0.00708   0.00000   0.22865   0.00000
  18       10D 0       -0.00005   0.00207   0.00000   0.00313   0.00000
  19       10D+1        0.00000   0.00000   0.00000   0.00000   0.00445
  20       10D-1        0.00000   0.00000   0.00971   0.00000   0.00000
  21       10D+2        0.00012  -0.00412   0.00000  -0.00199   0.00000
  22       10D-2        0.00000   0.00000   0.00000   0.00000   0.00000
  23       11D 0        0.00010   0.00363   0.00000   0.01196   0.00000
  24       11D+1        0.00000   0.00000   0.00000   0.00000  -0.00445
  25       11D-1        0.00000   0.00000   0.02787   0.00000   0.00000
  26       11D+2       -0.00021  -0.01097   0.00000  -0.00522   0.00000
  27       11D-2        0.00000   0.00000   0.00000   0.00000   0.00000
  28       12D 0       -0.00016   0.00853   0.00000   0.02942   0.00000
  29       12D+1        0.00000   0.00000   0.00000   0.00000   0.05413
  30       12D-1        0.00000   0.00000   0.02315   0.00000   0.00000
  31       12D+2        0.00066  -0.00966   0.00000  -0.00590   0.00000
  32       12D-2        0.00000   0.00000   0.00000   0.00000   0.00000
  33       13F 0       -0.00002  -0.00125   0.00000  -0.00144   0.00000
  34       13F+1        0.00000   0.00000   0.00000   0.00000  -0.00145
  35       13F-1        0.00000   0.00000   0.00061   0.00000   0.00000
  36       13F+2        0.00001  -0.00170   0.00000   0.00023   0.00000
  37       13F-2        0.00000   0.00000   0.00000   0.00000   0.00000
  38       13F+3        0.00000   0.00000   0.00000   0.00000   0.00186
  39       13F-3        0.00000   0.00000   0.00000   0.00000   0.00000
  40       14F 0        0.00006  -0.00137   0.00000  -0.00185   0.00000
  41       14F+1        0.00000   0.00000   0.00000   0.00000  -0.00302
  42       14F-1        0.00000   0.00000   0.00086   0.00000   0.00000
  43       14F+2        0.00021  -0.00383   0.00000   0.00217   0.00000
  44       14F-2        0.00000   0.00000   0.00000   0.00000   0.00000
  45       14F+3        0.00000   0.00000   0.00000   0.00000   0.00363
  46       14F-3        0.00000   0.00000   0.00160   0.00000   0.00000
  47       15G 0        0.00005  -0.00042   0.00000  -0.00030   0.00000
  48       15G+1        0.00000   0.00000   0.00000   0.00000   0.00008
  49       15G-1        0.00000   0.00000  -0.00048   0.00000   0.00000
  50       15G+2        0.00010  -0.00033   0.00000  -0.00019   0.00000
  51       15G-2        0.00000   0.00000   0.00000   0.00000   0.00000
  52       15G+3        0.00000   0.00000   0.00000   0.00000   0.00207
  53       15G-3        0.00000   0.00000   0.00004   0.00000   0.00000
  54       15G+4        0.00002   0.00000   0.00000  -0.00019   0.00000
  55       15G-4        0.00000   0.00000   0.00000   0.00000   0.00000
  56 2   H  1S         -0.00001   0.04175   0.05379   0.02505   0.00000
  57        2S          0.00067   0.10751   0.14387   0.06857   0.00000
  58        3S          0.00347   0.11993   0.22582   0.11536   0.00000
  59        4S          0.00003   0.01457   0.07720   0.03727   0.00000
  60        5PX         0.00000   0.00000   0.00000   0.00000   0.00128
  61        5PY         0.00007  -0.00349  -0.00170  -0.00177   0.00000
  62        5PZ         0.00000  -0.00227  -0.00267   0.00139   0.00000
  63        6PX         0.00000   0.00000   0.00000   0.00000   0.01905
  64        6PY        -0.00061  -0.01148  -0.00935  -0.00899   0.00000
  65        6PZ        -0.00030  -0.00750  -0.01289   0.00131   0.00000
  66        7PX         0.00000   0.00000   0.00000   0.00000  -0.00028
  67        7PY        -0.00113  -0.00858  -0.01240  -0.00777   0.00000
  68        7PZ        -0.00083  -0.00467  -0.01497   0.00511   0.00000
  69        8D 0        0.00001  -0.00004   0.00051  -0.00061   0.00000
  70        8D+1        0.00000   0.00000   0.00000   0.00000  -0.00039
  71        8D-1        0.00010   0.00099   0.00119   0.00010   0.00000
  72        8D+2       -0.00007  -0.00078  -0.00041  -0.00073   0.00000
  73        8D-2        0.00000   0.00000   0.00000   0.00000  -0.00108
  74        9D 0       -0.00011  -0.00054   0.00091  -0.00164   0.00000
  75        9D+1        0.00000   0.00000   0.00000   0.00000  -0.00566
  76        9D-1        0.00028   0.00214   0.00420   0.00172   0.00000
  77        9D+2       -0.00025  -0.00139  -0.00072  -0.00108   0.00000
  78        9D-2        0.00000   0.00000   0.00000   0.00000  -0.00398
  79       10F 0        0.00010   0.00021   0.00022   0.00037   0.00000
  80       10F+1        0.00000   0.00000   0.00000   0.00000   0.00048
  81       10F-1       -0.00001   0.00010  -0.00054   0.00009   0.00000
  82       10F+2        0.00013   0.00016   0.00047   0.00039   0.00000
  83       10F-2        0.00000   0.00000   0.00000   0.00000   0.00155
  84       10F+3        0.00000   0.00000   0.00000   0.00000  -0.00103
  85       10F-3        0.00008   0.00015  -0.00001   0.00025   0.00000
  86 3   H  1S         -0.00001   0.04175  -0.05379   0.02505   0.00000
  87        2S          0.00067   0.10751  -0.14387   0.06857   0.00000
  88        3S          0.00347   0.11993  -0.22582   0.11536   0.00000
  89        4S          0.00003   0.01457  -0.07720   0.03727   0.00000
  90        5PX         0.00000   0.00000   0.00000   0.00000   0.00128
  91        5PY        -0.00007   0.00349  -0.00170   0.00177   0.00000
  92        5PZ         0.00000  -0.00227   0.00267   0.00139   0.00000
  93        6PX         0.00000   0.00000   0.00000   0.00000   0.01905
  94        6PY         0.00061   0.01148  -0.00935   0.00899   0.00000
  95        6PZ        -0.00030  -0.00750   0.01289   0.00131   0.00000
  96        7PX         0.00000   0.00000   0.00000   0.00000  -0.00028
  97        7PY         0.00113   0.00858  -0.01240   0.00777   0.00000
  98        7PZ        -0.00083  -0.00467   0.01497   0.00511   0.00000
  99        8D 0        0.00001  -0.00004  -0.00051  -0.00061   0.00000
 100        8D+1        0.00000   0.00000   0.00000   0.00000  -0.00039
 101        8D-1       -0.00010  -0.00099   0.00119  -0.00010   0.00000
 102        8D+2       -0.00007  -0.00078   0.00041  -0.00073   0.00000
 103        8D-2        0.00000   0.00000   0.00000   0.00000   0.00108
 104        9D 0       -0.00011  -0.00054  -0.00091  -0.00164   0.00000
 105        9D+1        0.00000   0.00000   0.00000   0.00000  -0.00566
 106        9D-1       -0.00028  -0.00214   0.00420  -0.00172   0.00000
 107        9D+2       -0.00025  -0.00139   0.00072  -0.00108   0.00000
 108        9D-2        0.00000   0.00000   0.00000   0.00000   0.00398
 109       10F 0        0.00010   0.00021  -0.00022   0.00037   0.00000
 110       10F+1        0.00000   0.00000   0.00000   0.00000   0.00048
 111       10F-1        0.00001  -0.00010  -0.00054  -0.00009   0.00000
 112       10F+2        0.00013   0.00016  -0.00047   0.00039   0.00000
 113       10F-2        0.00000   0.00000   0.00000   0.00000  -0.00155
 114       10F+3        0.00000   0.00000   0.00000   0.00000  -0.00103
 115       10F-3       -0.00008  -0.00015  -0.00001  -0.00025   0.00000
                           6         7         8         9        10
                           V         V         V         V         V
     Eigenvalues --     0.12226   0.18796   0.29082   0.32566   0.38138
   1 1   C  1S         -0.03763   0.00000   0.00000  -0.01777   0.00000
   2        2S          0.06369   0.00000   0.00000   0.02857   0.00000
   3        3S          0.00312   0.00000   0.00000  -0.23893   0.00000
   4        4S          0.81601   0.00000   0.00000   2.04076   0.00000
   5        5S          3.89305   0.00000   0.00000   4.20534   0.00000
   6        6PX         0.00000   0.00000   0.00000   0.00000  -0.14680
   7        6PY         0.00000  -0.06712   0.02653   0.00000   0.00000
   8        6PZ         0.03227   0.00000   0.00000  -0.09247   0.00000
   9        7PX         0.00000   0.00000   0.00000   0.00000  -0.12599
  10        7PY         0.00000  -0.10304  -0.02585   0.00000   0.00000
  11        7PZ         0.05063   0.00000   0.00000  -0.04110   0.00000
  12        8PX         0.00000   0.00000   0.00000   0.00000  -0.99385
  13        8PY         0.00000  -0.47646  -1.98108   0.00000   0.00000
  14        8PZ         0.73272   0.00000   0.00000   0.89469   0.00000
  15        9PX         0.00000   0.00000   0.00000   0.00000   1.35051
  16        9PY         0.00000  -1.66326  -3.11690   0.00000   0.00000
  17        9PZ         1.26877   0.00000   0.00000   2.73946   0.00000
  18       10D 0        0.00052   0.00000   0.00000   0.00064   0.00000
  19       10D+1        0.00000   0.00000   0.00000   0.00000   0.00532
  20       10D-1        0.00000  -0.00242   0.02092   0.00000   0.00000
  21       10D+2        0.00029   0.00000   0.00000   0.00660   0.00000
  22       10D-2        0.00000   0.00000   0.00000   0.00000   0.00000
  23       11D 0        0.00870   0.00000   0.00000   0.00828   0.00000
  24       11D+1        0.00000   0.00000   0.00000   0.00000  -0.05670
  25       11D-1        0.00000   0.02234  -0.22451   0.00000   0.00000
  26       11D+2       -0.01845   0.00000   0.00000  -0.09763   0.00000
  27       11D-2        0.00000   0.00000   0.00000   0.00000   0.00000
  28       12D 0        0.12742   0.00000   0.00000   0.47003   0.00000
  29       12D+1        0.00000   0.00000   0.00000   0.00000   0.11797
  30       12D-1        0.00000  -0.25744  -1.27232   0.00000   0.00000
  31       12D+2       -0.27231   0.00000   0.00000  -0.36508   0.00000
  32       12D-2        0.00000   0.00000   0.00000   0.00000   0.00000
  33       13F 0       -0.00092   0.00000   0.00000  -0.01030   0.00000
  34       13F+1        0.00000   0.00000   0.00000   0.00000  -0.00222
  35       13F-1        0.00000   0.00330  -0.00469   0.00000   0.00000
  36       13F+2        0.00233   0.00000   0.00000  -0.00807   0.00000
  37       13F-2        0.00000   0.00000   0.00000   0.00000   0.00000
  38       13F+3        0.00000   0.00000   0.00000   0.00000   0.00656
  39       13F-3        0.00000  -0.00324  -0.00058   0.00000   0.00000
  40       14F 0       -0.00718   0.00000   0.00000   0.02494   0.00000
  41       14F+1        0.00000   0.00000   0.00000   0.00000   0.00816
  42       14F-1        0.00000  -0.00283  -0.12485   0.00000   0.00000
  43       14F+2       -0.04627   0.00000   0.00000  -0.09770   0.00000
  44       14F-2        0.00000   0.00000   0.00000   0.00000   0.00000
  45       14F+3        0.00000   0.00000   0.00000   0.00000  -0.00226
  46       14F-3        0.00000   0.00126   0.10083   0.00000   0.00000
  47       15G 0       -0.00210   0.00000   0.00000   0.00113   0.00000
  48       15G+1        0.00000   0.00000   0.00000   0.00000   0.00188
  49       15G-1        0.00000  -0.00058  -0.00333   0.00000   0.00000
  50       15G+2       -0.00465   0.00000   0.00000  -0.00773   0.00000
  51       15G-2        0.00000   0.00000   0.00000   0.00000   0.00000
  52       15G+3        0.00000   0.00000   0.00000   0.00000   0.01343
  53       15G-3        0.00000  -0.00142   0.01466   0.00000   0.00000
  54       15G+4        0.00070   0.00000   0.00000   0.00139   0.00000
  55       15G-4        0.00000   0.00000   0.00000   0.00000   0.00000
  56 2   H  1S          0.00493  -0.00466   0.02251  -0.01808   0.00000
  57        2S         -0.02666   0.03053   0.05428   0.05257   0.00000
  58        3S         -0.83383   0.18863   3.40499  -2.64338   0.00000
  59        4S         -2.15681   2.83366   1.32963  -1.17524   0.00000
  60        5PX         0.00000   0.00000   0.00000   0.00000  -0.01497
  61        5PY         0.00101  -0.00582   0.01762  -0.01235   0.00000
  62        5PZ         0.00050  -0.00354   0.01017  -0.01292   0.00000
  63        6PX         0.00000   0.00000   0.00000   0.00000   0.05948
  64        6PY        -0.01105   0.04724  -0.15451   0.08891   0.00000
  65        6PZ        -0.00332   0.03969  -0.08732   0.09234   0.00000
  66        7PX         0.00000   0.00000   0.00000   0.00000  -0.20130
  67        7PY         0.40505  -0.24440  -0.72200   0.82459   0.00000
  68        7PZ         0.24876  -0.18093  -0.65712   0.26222   0.00000
  69        8D 0       -0.00021  -0.00005   0.00041  -0.00270   0.00000
  70        8D+1        0.00000   0.00000   0.00000   0.00000   0.00095
  71        8D-1        0.00276  -0.00350  -0.00098  -0.00002   0.00000
  72        8D+2       -0.00256   0.00248  -0.00244  -0.00453   0.00000
  73        8D-2        0.00000   0.00000   0.00000   0.00000  -0.00061
  74        9D 0        0.00213  -0.00317   0.00028   0.01534   0.00000
  75        9D+1        0.00000   0.00000   0.00000   0.00000  -0.01658
  76        9D-1       -0.02949   0.00951   0.11195  -0.07596   0.00000
  77        9D+2        0.02657  -0.00847  -0.06166   0.09027   0.00000
  78        9D-2        0.00000   0.00000   0.00000   0.00000  -0.00945
  79       10F 0       -0.00081  -0.00074   0.00372  -0.00182   0.00000
  80       10F+1        0.00000   0.00000   0.00000   0.00000   0.00186
  81       10F-1       -0.00043   0.00103  -0.00369   0.00520   0.00000
  82       10F+2       -0.00111  -0.00160   0.00983  -0.00978   0.00000
  83       10F-2        0.00000   0.00000   0.00000   0.00000   0.00508
  84       10F+3        0.00000   0.00000   0.00000   0.00000  -0.00341
  85       10F-3       -0.00063  -0.00023   0.00613  -0.00629   0.00000
  86 3   H  1S          0.00493   0.00466  -0.02251  -0.01808   0.00000
  87        2S         -0.02666  -0.03053  -0.05428   0.05257   0.00000
  88        3S         -0.83383  -0.18863  -3.40499  -2.64338   0.00000
  89        4S         -2.15681  -2.83366  -1.32963  -1.17524   0.00000
  90        5PX         0.00000   0.00000   0.00000   0.00000  -0.01497
  91        5PY        -0.00101  -0.00582   0.01762   0.01235   0.00000
  92        5PZ         0.00050   0.00354  -0.01017  -0.01292   0.00000
  93        6PX         0.00000   0.00000   0.00000   0.00000   0.05948
  94        6PY         0.01105   0.04724  -0.15451  -0.08891   0.00000
  95        6PZ        -0.00332  -0.03969   0.08732   0.09234   0.00000
  96        7PX         0.00000   0.00000   0.00000   0.00000  -0.20130
  97        7PY        -0.40505  -0.24440  -0.72200  -0.82459   0.00000
  98        7PZ         0.24876   0.18093   0.65712   0.26222   0.00000
  99        8D 0       -0.00021   0.00005  -0.00041  -0.00270   0.00000
 100        8D+1        0.00000   0.00000   0.00000   0.00000   0.00095
 101        8D-1       -0.00276  -0.00350  -0.00098   0.00002   0.00000
 102        8D+2       -0.00256  -0.00248   0.00244  -0.00453   0.00000
 103        8D-2        0.00000   0.00000   0.00000   0.00000   0.00061
 104        9D 0        0.00213   0.00317  -0.00028   0.01534   0.00000
 105        9D+1        0.00000   0.00000   0.00000   0.00000  -0.01658
 106        9D-1        0.02949   0.00951   0.11195   0.07596   0.00000
 107        9D+2        0.02657   0.00847   0.06166   0.09027   0.00000
 108        9D-2        0.00000   0.00000   0.00000   0.00000   0.00945
 109       10F 0       -0.00081   0.00074  -0.00372  -0.00182   0.00000
 110       10F+1        0.00000   0.00000   0.00000   0.00000   0.00186
 111       10F-1        0.00043   0.00103  -0.00369  -0.00520   0.00000
 112       10F+2       -0.00111   0.00160  -0.00983  -0.00978   0.00000
 113       10F-2        0.00000   0.00000   0.00000   0.00000  -0.00508
 114       10F+3        0.00000   0.00000   0.00000   0.00000  -0.00341
 115       10F-3        0.00063  -0.00023   0.00613   0.00629   0.00000
                          11        12        13        14        15
                           V         V         V         V         V
     Eigenvalues --     0.42977   0.49522   0.51887   0.57051   0.57094
   1 1   C  1S          0.04245   0.06430   0.00000   0.01277   0.00000
   2        2S         -0.05235  -0.11726   0.00000  -0.02753   0.00000
   3        3S         -0.31169  -0.42655   0.00000  -0.03451   0.00000
   4        4S          1.44093   1.70462   0.00000   0.06776   0.00000
   5        5S          7.05808   6.81418   0.00000   0.52676   0.00000
   6        6PX         0.00000   0.00000   0.00000   0.00000   0.00000
   7        6PY         0.00000   0.00000  -0.12136   0.00000   0.00000
   8        6PZ         0.05531  -0.05727   0.00000  -0.04775   0.00000
   9        7PX         0.00000   0.00000   0.00000   0.00000   0.00000
  10        7PY         0.00000   0.00000  -0.25248   0.00000   0.00000
  11        7PZ         0.02795  -0.16468   0.00000  -0.09931   0.00000
  12        8PX         0.00000   0.00000   0.00000   0.00000   0.00000
  13        8PY         0.00000   0.00000   1.77570   0.00000   0.00000
  14        8PZ         2.46065   1.89114   0.00000  -0.22488   0.00000
  15        9PX         0.00000   0.00000   0.00000   0.00000   0.00000
  16        9PY         0.00000   0.00000   2.99551   0.00000   0.00000
  17        9PZ         1.42504   1.89579   0.00000  -0.10968   0.00000
  18       10D 0       -0.00689  -0.01324   0.00000   0.03831   0.00000
  19       10D+1        0.00000   0.00000   0.00000   0.00000   0.00000
  20       10D-1        0.00000   0.00000   0.00325   0.00000   0.00000
  21       10D+2        0.03239  -0.00243   0.00000  -0.00260   0.00000
  22       10D-2        0.00000   0.00000   0.00000   0.00000   0.04027
  23       11D 0        0.08155   0.05381   0.00000  -0.09009   0.00000
  24       11D+1        0.00000   0.00000   0.00000   0.00000   0.00000
  25       11D-1        0.00000   0.00000   0.16472   0.00000   0.00000
  26       11D+2       -0.21381  -0.12834   0.00000   0.02009   0.00000
  27       11D-2        0.00000   0.00000   0.00000   0.00000  -0.08935
  28       12D 0        0.15318   0.20878   0.00000   0.49038   0.00000
  29       12D+1        0.00000   0.00000   0.00000   0.00000   0.00000
  30       12D-1        0.00000   0.00000   1.60222   0.00000   0.00000
  31       12D+2       -0.52721  -0.91523   0.00000  -0.22514   0.00000
  32       12D-2        0.00000   0.00000   0.00000   0.00000   0.66116
  33       13F 0       -0.00186  -0.00271   0.00000   0.00286   0.00000
  34       13F+1        0.00000   0.00000   0.00000   0.00000   0.00000
  35       13F-1        0.00000   0.00000   0.00044   0.00000   0.00000
  36       13F+2       -0.00597   0.00001   0.00000   0.00492   0.00000
  37       13F-2        0.00000   0.00000   0.00000   0.00000   0.00069
  38       13F+3        0.00000   0.00000   0.00000   0.00000   0.00000
  39       13F-3        0.00000   0.00000   0.00342   0.00000   0.00000
  40       14F 0       -0.07763  -0.03590   0.00000   0.00940   0.00000
  41       14F+1        0.00000   0.00000   0.00000   0.00000   0.00000
  42       14F-1        0.00000   0.00000   0.09628   0.00000   0.00000
  43       14F+2       -0.20521  -0.16686   0.00000  -0.00147   0.00000
  44       14F-2        0.00000   0.00000   0.00000   0.00000   0.01714
  45       14F+3        0.00000   0.00000   0.00000   0.00000   0.00000
  46       14F-3        0.00000   0.00000  -0.08729   0.00000   0.00000
  47       15G 0       -0.01595  -0.00929   0.00000   0.00170   0.00000
  48       15G+1        0.00000   0.00000   0.00000   0.00000   0.00000
  49       15G-1        0.00000   0.00000   0.00102   0.00000   0.00000
  50       15G+2       -0.02731  -0.01653   0.00000   0.00239   0.00000
  51       15G-2        0.00000   0.00000   0.00000   0.00000   0.00432
  52       15G+3        0.00000   0.00000   0.00000   0.00000   0.00000
  53       15G-3        0.00000   0.00000  -0.00702   0.00000   0.00000
  54       15G+4        0.00622   0.00341   0.00000  -0.00093   0.00000
  55       15G-4        0.00000   0.00000   0.00000   0.00000  -0.00458
  56 2   H  1S         -0.01221   0.04174   0.04419   0.01175   0.00000
  57        2S         -0.07050  -0.00704   0.03406  -0.00186   0.00000
  58        3S         -3.40870  -2.34849  -2.32152   0.16628   0.00000
  59        4S         -1.64492  -2.40840  -2.95018  -0.37904   0.00000
  60        5PX         0.00000   0.00000   0.00000   0.00000   0.03262
  61        5PY        -0.02357   0.01529   0.00460  -0.01034   0.00000
  62        5PZ        -0.00239  -0.00246   0.01265   0.03103   0.00000
  63        6PX         0.00000   0.00000   0.00000   0.00000  -0.10955
  64        6PY         0.18160   0.02832   0.02365   0.02549   0.00000
  65        6PZ         0.09806   0.05818  -0.00405  -0.11140   0.00000
  66        7PX         0.00000   0.00000   0.00000   0.00000   0.42058
  67        7PY         0.81631   1.38070   1.10113  -0.12315   0.00000
  68        7PZ         0.73767   0.72002   1.07047   0.54316   0.00000
  69        8D 0       -0.00246   0.00099   0.00016  -0.00139   0.00000
  70        8D+1        0.00000   0.00000   0.00000   0.00000  -0.00349
  71        8D-1       -0.00241   0.00468   0.00732   0.00154   0.00000
  72        8D+2       -0.00105  -0.00394  -0.00399  -0.00419   0.00000
  73        8D-2        0.00000   0.00000   0.00000   0.00000  -0.00183
  74        9D 0        0.00701   0.00567  -0.01264  -0.00822   0.00000
  75        9D+1        0.00000   0.00000   0.00000   0.00000   0.00881
  76        9D-1       -0.10377  -0.09659  -0.09869  -0.00332   0.00000
  77        9D+2        0.08282   0.08242   0.06065   0.00349   0.00000
  78        9D-2        0.00000   0.00000   0.00000   0.00000   0.00389
  79       10F 0       -0.00420  -0.00465   0.00016   0.00555   0.00000
  80       10F+1        0.00000   0.00000   0.00000   0.00000   0.00219
  81       10F-1        0.00237  -0.00273   0.00244   0.00745   0.00000
  82       10F+2       -0.00509  -0.00484  -0.00330   0.00297   0.00000
  83       10F-2        0.00000   0.00000   0.00000   0.00000   0.00714
  84       10F+3        0.00000   0.00000   0.00000   0.00000  -0.00512
  85       10F-3       -0.00300  -0.00297  -0.00332   0.00286   0.00000
  86 3   H  1S         -0.01221   0.04174  -0.04419   0.01175   0.00000
  87        2S         -0.07050  -0.00704  -0.03406  -0.00186   0.00000
  88        3S         -3.40870  -2.34849   2.32152   0.16628   0.00000
  89        4S         -1.64492  -2.40840   2.95018  -0.37904   0.00000
  90        5PX         0.00000   0.00000   0.00000   0.00000  -0.03262
  91        5PY         0.02357  -0.01529   0.00460   0.01034   0.00000
  92        5PZ        -0.00239  -0.00246  -0.01265   0.03103   0.00000
  93        6PX         0.00000   0.00000   0.00000   0.00000   0.10955
  94        6PY        -0.18160  -0.02832   0.02365  -0.02549   0.00000
  95        6PZ         0.09806   0.05818   0.00405  -0.11140   0.00000
  96        7PX         0.00000   0.00000   0.00000   0.00000  -0.42058
  97        7PY        -0.81631  -1.38070   1.10113   0.12315   0.00000
  98        7PZ         0.73767   0.72002  -1.07047   0.54316   0.00000
  99        8D 0       -0.00246   0.00099  -0.00016  -0.00139   0.00000
 100        8D+1        0.00000   0.00000   0.00000   0.00000   0.00349
 101        8D-1        0.00241  -0.00468   0.00732  -0.00154   0.00000
 102        8D+2       -0.00105  -0.00394   0.00399  -0.00419   0.00000
 103        8D-2        0.00000   0.00000   0.00000   0.00000  -0.00183
 104        9D 0        0.00701   0.00567   0.01264  -0.00822   0.00000
 105        9D+1        0.00000   0.00000   0.00000   0.00000  -0.00881
 106        9D-1        0.10377   0.09659  -0.09869   0.00332   0.00000
 107        9D+2        0.08282   0.08242  -0.06065   0.00349   0.00000
 108        9D-2        0.00000   0.00000   0.00000   0.00000   0.00389
 109       10F 0       -0.00420  -0.00465  -0.00016   0.00555   0.00000
 110       10F+1        0.00000   0.00000   0.00000   0.00000  -0.00219
 111       10F-1       -0.00237   0.00273   0.00244  -0.00745   0.00000
 112       10F+2       -0.00509  -0.00484   0.00330   0.00297   0.00000
 113       10F-2        0.00000   0.00000   0.00000   0.00000   0.00714
 114       10F+3        0.00000   0.00000   0.00000   0.00000   0.00512
 115       10F-3        0.00300   0.00297  -0.00332  -0.00286   0.00000
                          16        17        18        19        20
                           V         V         V         V         V
     Eigenvalues --     0.59895   0.79911   0.85030   0.85510   0.89426
   1 1   C  1S          0.00000  -0.01628   0.00000   0.00000   0.00000
   2        2S          0.00000  -0.00696   0.00000   0.00000   0.00000
   3        3S          0.00000  -0.70281   0.00000   0.00000   0.00000
   4        4S          0.00000   2.83318   0.00000   0.00000   0.00000
   5        5S          0.00000   5.48806   0.00000   0.00000   0.00000
   6        6PX        -0.02889   0.00000   0.00000   0.00000   0.00000
   7        6PY         0.00000   0.00000  -0.02125  -0.07287   0.00000
   8        6PZ         0.00000   0.03648   0.00000   0.00000   0.00000
   9        7PX        -0.04970   0.00000   0.00000   0.00000   0.00000
  10        7PY         0.00000   0.00000   0.10325  -0.00427   0.00000
  11        7PZ         0.00000  -0.01740   0.00000   0.00000   0.00000
  12        8PX        -0.23299   0.00000   0.00000   0.00000   0.00000
  13        8PY         0.00000   0.00000  -2.01294  -4.27113   0.00000
  14        8PZ         0.00000   2.38412   0.00000   0.00000   0.00000
  15        9PX        -0.16662   0.00000   0.00000   0.00000   0.00000
  16        9PY         0.00000   0.00000  -0.85344  -2.31726   0.00000
  17        9PZ         0.00000   1.80277   0.00000   0.00000   0.00000
  18       10D 0        0.00000   0.00980   0.00000   0.00000   0.00000
  19       10D+1        0.04557   0.00000   0.00000   0.00000   0.00000
  20       10D-1        0.00000   0.00000   0.01950   0.01651   0.00000
  21       10D+2        0.00000  -0.00580   0.00000   0.00000   0.00000
  22       10D-2        0.00000   0.00000   0.00000   0.00000   0.00482
  23       11D 0        0.00000  -0.02223   0.00000   0.00000   0.00000
  24       11D+1       -0.11474   0.00000   0.00000   0.00000   0.00000
  25       11D-1        0.00000   0.00000  -0.27556  -0.38044   0.00000
  26       11D+2        0.00000  -0.16901   0.00000   0.00000   0.00000
  27       11D-2        0.00000   0.00000   0.00000   0.00000   0.09878
  28       12D 0        0.00000   0.22547   0.00000   0.00000   0.00000
  29       12D+1        0.79409   0.00000   0.00000   0.00000   0.00000
  30       12D-1        0.00000   0.00000  -2.48718  -2.73347   0.00000
  31       12D+2        0.00000  -2.25780   0.00000   0.00000   0.00000
  32       12D-2        0.00000   0.00000   0.00000   0.00000   1.92668
  33       13F 0        0.00000  -0.00020   0.00000   0.00000   0.00000
  34       13F+1       -0.00320   0.00000   0.00000   0.00000   0.00000
  35       13F-1        0.00000   0.00000   0.01198  -0.00370   0.00000
  36       13F+2        0.00000   0.00185   0.00000   0.00000   0.00000
  37       13F-2        0.00000   0.00000   0.00000   0.00000  -0.01288
  38       13F+3       -0.00208   0.00000   0.00000   0.00000   0.00000
  39       13F-3        0.00000   0.00000   0.00029  -0.00003   0.00000
  40       14F 0        0.00000  -0.21949   0.00000   0.00000   0.00000
  41       14F+1        0.03352   0.00000   0.00000   0.00000   0.00000
  42       14F-1        0.00000   0.00000  -0.52136  -0.13439   0.00000
  43       14F+2        0.00000  -0.43203   0.00000   0.00000   0.00000
  44       14F-2        0.00000   0.00000   0.00000   0.00000   0.39015
  45       14F+3        0.01100   0.00000   0.00000   0.00000   0.00000
  46       14F-3        0.00000   0.00000   0.01776   0.25934   0.00000
  47       15G 0        0.00000  -0.03966   0.00000   0.00000   0.00000
  48       15G+1       -0.00002   0.00000   0.00000   0.00000   0.00000
  49       15G-1        0.00000   0.00000  -0.05172   0.02581   0.00000
  50       15G+2        0.00000  -0.04637   0.00000   0.00000   0.00000
  51       15G-2        0.00000   0.00000   0.00000   0.00000   0.04342
  52       15G+3       -0.00370   0.00000   0.00000   0.00000   0.00000
  53       15G-3        0.00000   0.00000   0.02517   0.05510   0.00000
  54       15G+4        0.00000   0.03157   0.00000   0.00000   0.00000
  55       15G-4        0.00000   0.00000   0.00000   0.00000  -0.04179
  56 2   H  1S          0.00000   0.00920  -0.02051  -0.02228   0.00000
  57        2S          0.00000  -0.26428   0.21416   0.11186   0.00000
  58        3S          0.00000  -4.27661   3.37232   5.26382   0.00000
  59        4S          0.00000  -0.87909   0.10983   0.44170   0.00000
  60        5PX         0.02625   0.00000   0.00000   0.00000  -0.02306
  61        5PY         0.00000  -0.02497   0.00511   0.05391   0.00000
  62        5PZ         0.00000  -0.02912   0.03366   0.00217   0.00000
  63        6PX        -0.08912   0.00000   0.00000   0.00000   0.06876
  64        6PY         0.00000   0.26617  -0.17350  -0.36126   0.00000
  65        6PZ         0.00000   0.26315  -0.19609  -0.12816   0.00000
  66        7PX         0.35710   0.00000   0.00000   0.00000  -1.73333
  67        7PY         0.00000   0.39907  -1.17414  -0.16570   0.00000
  68        7PZ         0.00000   0.51576   0.56548  -1.42531   0.00000
  69        8D 0        0.00000   0.00426   0.00977  -0.00499   0.00000
  70        8D+1       -0.00040   0.00000   0.00000   0.00000  -0.01343
  71        8D-1        0.00000  -0.01461   0.00744   0.00690   0.00000
  72        8D+2        0.00000   0.00778  -0.00623  -0.01195   0.00000
  73        8D-2       -0.00383   0.00000   0.00000   0.00000  -0.01189
  74        9D 0        0.00000  -0.05698  -0.17877   0.09795   0.00000
  75        9D+1       -0.00606   0.00000   0.00000   0.00000   0.17305
  76        9D-1        0.00000  -0.06409   0.01357   0.11131   0.00000
  77        9D+2        0.00000   0.01316  -0.08773  -0.00770   0.00000
  78        9D-2        0.00870   0.00000   0.00000   0.00000   0.19669
  79       10F 0        0.00000  -0.00122   0.01357  -0.01117   0.00000
  80       10F+1        0.00331   0.00000   0.00000   0.00000  -0.00503
  81       10F-1        0.00000   0.00296   0.02872  -0.01493   0.00000
  82       10F+2        0.00000   0.00364   0.00206   0.00123   0.00000
  83       10F-2        0.00781   0.00000   0.00000   0.00000  -0.02862
  84       10F+3       -0.00355   0.00000   0.00000   0.00000   0.01828
  85       10F-3        0.00000   0.00279   0.00771  -0.00603   0.00000
  86 3   H  1S          0.00000   0.00920   0.02051   0.02228   0.00000
  87        2S          0.00000  -0.26428  -0.21416  -0.11186   0.00000
  88        3S          0.00000  -4.27661  -3.37232  -5.26382   0.00000
  89        4S          0.00000  -0.87909  -0.10983  -0.44170   0.00000
  90        5PX         0.02625   0.00000   0.00000   0.00000   0.02306
  91        5PY         0.00000   0.02497   0.00511   0.05391   0.00000
  92        5PZ         0.00000  -0.02912  -0.03366  -0.00217   0.00000
  93        6PX        -0.08912   0.00000   0.00000   0.00000  -0.06876
  94        6PY         0.00000  -0.26617  -0.17350  -0.36126   0.00000
  95        6PZ         0.00000   0.26315   0.19609   0.12816   0.00000
  96        7PX         0.35710   0.00000   0.00000   0.00000   1.73333
  97        7PY         0.00000  -0.39907  -1.17414  -0.16570   0.00000
  98        7PZ         0.00000   0.51576  -0.56548   1.42531   0.00000
  99        8D 0        0.00000   0.00426  -0.00977   0.00499   0.00000
 100        8D+1       -0.00040   0.00000   0.00000   0.00000   0.01343
 101        8D-1        0.00000   0.01461   0.00744   0.00690   0.00000
 102        8D+2        0.00000   0.00778   0.00623   0.01195   0.00000
 103        8D-2        0.00383   0.00000   0.00000   0.00000  -0.01189
 104        9D 0        0.00000  -0.05698   0.17877  -0.09795   0.00000
 105        9D+1       -0.00606   0.00000   0.00000   0.00000  -0.17305
 106        9D-1        0.00000   0.06409   0.01357   0.11131   0.00000
 107        9D+2        0.00000   0.01316   0.08773   0.00770   0.00000
 108        9D-2       -0.00870   0.00000   0.00000   0.00000   0.19669
 109       10F 0        0.00000  -0.00122  -0.01357   0.01117   0.00000
 110       10F+1        0.00331   0.00000   0.00000   0.00000   0.00503
 111       10F-1        0.00000  -0.00296   0.02872  -0.01493   0.00000
 112       10F+2        0.00000   0.00364  -0.00206  -0.00123   0.00000
 113       10F-2       -0.00781   0.00000   0.00000   0.00000  -0.02862
 114       10F+3       -0.00355   0.00000   0.00000   0.00000  -0.01828
 115       10F-3        0.00000  -0.00279   0.00771  -0.00603   0.00000
                          21        22        23        24        25
                           V         V         V         V         V
     Eigenvalues --     0.91371   0.98840   1.13328   1.14004   1.43710
   1 1   C  1S          0.00000  -0.00723   0.00000  -0.06922   0.01348
   2        2S          0.00000   0.01126   0.00000   0.10235   0.01110
   3        3S          0.00000  -0.29414   0.00000  -1.30833  -0.81469
   4        4S          0.00000   2.72742   0.00000  12.79996   6.36746
   5        5S          0.00000   3.98920   0.00000   9.10553   3.51568
   6        6PX        -0.05292   0.00000   0.00000   0.00000   0.00000
   7        6PY         0.00000   0.00000  -0.09982   0.00000   0.00000
   8        6PZ         0.00000   0.06826   0.00000   0.04919  -0.09589
   9        7PX        -0.02779   0.00000   0.00000   0.00000   0.00000
  10        7PY         0.00000   0.00000  -0.49750   0.00000   0.00000
  11        7PZ         0.00000   0.11488   0.00000   0.38547   0.13092
  12        8PX        -1.41912   0.00000   0.00000   0.00000   0.00000
  13        8PY         0.00000   0.00000  -9.08352   0.00000   0.00000
  14        8PZ         0.00000   3.22557   0.00000   6.56475   3.39977
  15        9PX        -0.76911   0.00000   0.00000   0.00000   0.00000
  16        9PY         0.00000   0.00000  -2.95868   0.00000   0.00000
  17        9PZ         0.00000   2.00415   0.00000   2.13979   1.01311
  18       10D 0        0.00000  -0.00371   0.00000  -0.00549  -0.01289
  19       10D+1       -0.00902   0.00000   0.00000   0.00000   0.00000
  20       10D-1        0.00000   0.00000   0.04532   0.00000   0.00000
  21       10D+2        0.00000  -0.00827   0.00000   0.03984   0.04458
  22       10D-2        0.00000   0.00000   0.00000   0.00000   0.00000
  23       11D 0        0.00000   0.21312   0.00000   0.06806   0.12245
  24       11D+1       -0.06450   0.00000   0.00000   0.00000   0.00000
  25       11D-1        0.00000   0.00000  -0.85863   0.00000   0.00000
  26       11D+2        0.00000  -0.00924   0.00000  -0.59647  -0.82516
  27       11D-2        0.00000   0.00000   0.00000   0.00000   0.00000
  28       12D 0        0.00000   2.89051   0.00000  -0.17783   0.10149
  29       12D+1       -1.61952   0.00000   0.00000   0.00000   0.00000
  30       12D-1        0.00000   0.00000  -3.49371   0.00000   0.00000
  31       12D+2        0.00000   0.60929   0.00000  -2.32636  -0.71768
  32       12D-2        0.00000   0.00000   0.00000   0.00000   0.00000
  33       13F 0        0.00000  -0.02667   0.00000  -0.02391  -0.03154
  34       13F+1        0.00741   0.00000   0.00000   0.00000   0.00000
  35       13F-1        0.00000   0.00000  -0.03148   0.00000   0.00000
  36       13F+2        0.00000  -0.01978   0.00000  -0.04703  -0.06081
  37       13F-2        0.00000   0.00000   0.00000   0.00000   0.00000
  38       13F+3       -0.00569   0.00000   0.00000   0.00000   0.00000
  39       13F-3        0.00000   0.00000   0.01682   0.00000   0.00000
  40       14F 0        0.00000   0.37466   0.00000  -0.22316  -0.15373
  41       14F+1       -0.13684   0.00000   0.00000   0.00000   0.00000
  42       14F-1        0.00000   0.00000  -0.14939   0.00000   0.00000
  43       14F+2        0.00000   0.05359   0.00000  -0.40781  -0.48509
  44       14F-2        0.00000   0.00000   0.00000   0.00000   0.00000
  45       14F+3        0.23405   0.00000   0.00000   0.00000   0.00000
  46       14F-3        0.00000   0.00000   0.19516   0.00000   0.00000
  47       15G 0        0.00000   0.01282   0.00000  -0.02422  -0.02383
  48       15G+1        0.00063   0.00000   0.00000   0.00000   0.00000
  49       15G-1        0.00000   0.00000   0.01171   0.00000   0.00000
  50       15G+2        0.00000  -0.03944   0.00000  -0.02381  -0.04091
  51       15G-2        0.00000   0.00000   0.00000   0.00000   0.00000
  52       15G+3        0.05750   0.00000   0.00000   0.00000   0.00000
  53       15G-3        0.00000   0.00000   0.01600   0.00000   0.00000
  54       15G+4        0.00000  -0.02418   0.00000   0.01757   0.01295
  55       15G-4        0.00000   0.00000   0.00000   0.00000   0.00000
  56 2   H  1S          0.00000  -0.00326   0.01153   0.00056   0.06482
  57        2S          0.00000   0.21707  -0.09228  -0.06258   0.76425
  58        3S          0.00000  -3.14944  10.37953  -9.56751  -5.80375
  59        4S          0.00000  -0.91160   2.30179  -2.16294  -0.20650
  60        5PX         0.03151   0.00000   0.00000   0.00000   0.00000
  61        5PY         0.00000  -0.01459   0.00771  -0.02736  -0.08427
  62        5PZ         0.00000  -0.02150   0.01874  -0.01352  -0.04430
  63        6PX        -0.12226   0.00000   0.00000   0.00000   0.00000
  64        6PY         0.00000   0.05591  -0.12156   0.26939   0.58741
  65        6PZ         0.00000   0.08487  -0.16970   0.17687   0.34200
  66        7PX         1.81984   0.00000   0.00000   0.00000   0.00000
  67        7PY         0.00000   2.38145  -4.28843   3.51150   1.28122
  68        7PZ         0.00000  -1.09869  -3.39560   3.48332   1.18679
  69        8D 0        0.00000  -0.01938  -0.00115   0.00479  -0.00559
  70        8D+1        0.00829   0.00000   0.00000   0.00000   0.00000
  71        8D-1        0.00000  -0.00579  -0.02175   0.02022  -0.00780
  72        8D+2        0.00000  -0.02392   0.01448  -0.00716  -0.00044
  73        8D-2        0.01696   0.00000   0.00000   0.00000   0.00000
  74        9D 0        0.00000   0.24045   0.05888  -0.10167  -0.00975
  75        9D+1       -0.13435   0.00000   0.00000   0.00000   0.00000
  76        9D-1        0.00000   0.01704   0.48664  -0.48049  -0.28655
  77        9D+2        0.00000   0.30605  -0.29208   0.23369   0.21612
  78        9D-2       -0.20217   0.00000   0.00000   0.00000   0.00000
  79       10F 0        0.00000  -0.00744   0.01636  -0.01271  -0.00827
  80       10F+1        0.00849   0.00000   0.00000   0.00000   0.00000
  81       10F-1        0.00000  -0.02597  -0.02289   0.03259   0.02820
  82       10F+2        0.00000  -0.00989   0.03683  -0.03559  -0.03024
  83       10F-2        0.02259   0.00000   0.00000   0.00000   0.00000
  84       10F+3       -0.02229   0.00000   0.00000   0.00000   0.00000
  85       10F-3        0.00000  -0.02564   0.02478  -0.00915  -0.01403
  86 3   H  1S          0.00000  -0.00326  -0.01153   0.00056   0.06482
  87        2S          0.00000   0.21707   0.09228  -0.06258   0.76425
  88        3S          0.00000  -3.14944 -10.37953  -9.56751  -5.80375
  89        4S          0.00000  -0.91160  -2.30179  -2.16294  -0.20650
  90        5PX         0.03151   0.00000   0.00000   0.00000   0.00000
  91        5PY         0.00000   0.01459   0.00771   0.02736   0.08427
  92        5PZ         0.00000  -0.02150  -0.01874  -0.01352  -0.04430
  93        6PX        -0.12226   0.00000   0.00000   0.00000   0.00000
  94        6PY         0.00000  -0.05591  -0.12156  -0.26939  -0.58741
  95        6PZ         0.00000   0.08487   0.16970   0.17687   0.34200
  96        7PX         1.81984   0.00000   0.00000   0.00000   0.00000
  97        7PY         0.00000  -2.38145  -4.28843  -3.51150  -1.28122
  98        7PZ         0.00000  -1.09869   3.39560   3.48332   1.18679
  99        8D 0        0.00000  -0.01938   0.00115   0.00479  -0.00559
 100        8D+1        0.00829   0.00000   0.00000   0.00000   0.00000
 101        8D-1        0.00000   0.00579  -0.02175  -0.02022   0.00780
 102        8D+2        0.00000  -0.02392  -0.01448  -0.00716  -0.00044
 103        8D-2       -0.01696   0.00000   0.00000   0.00000   0.00000
 104        9D 0        0.00000   0.24045  -0.05888  -0.10167  -0.00975
 105        9D+1       -0.13435   0.00000   0.00000   0.00000   0.00000
 106        9D-1        0.00000  -0.01704   0.48664   0.48049   0.28655
 107        9D+2        0.00000   0.30605   0.29208   0.23369   0.21612
 108        9D-2        0.20217   0.00000   0.00000   0.00000   0.00000
 109       10F 0        0.00000  -0.00744  -0.01636  -0.01271  -0.00827
 110       10F+1        0.00849   0.00000   0.00000   0.00000   0.00000
 111       10F-1        0.00000   0.02597  -0.02289  -0.03259  -0.02820
 112       10F+2        0.00000  -0.00989  -0.03683  -0.03559  -0.03024
 113       10F-2       -0.02259   0.00000   0.00000   0.00000   0.00000
 114       10F+3       -0.02229   0.00000   0.00000   0.00000   0.00000
 115       10F-3        0.00000   0.02564   0.02478   0.00915   0.01403
                          26        27        28        29        30
                           V         V         V         V         V
     Eigenvalues --     1.45345   1.53965   1.63794   1.79227   1.85331
   1 1   C  1S          0.00000   0.00000  -0.05617   0.00000  -0.00906
   2        2S          0.00000   0.00000   0.10174   0.00000   0.01083
   3        3S          0.00000   0.00000  -0.66225   0.00000  -0.38835
   4        4S          0.00000   0.00000   5.74058   0.00000   2.16143
   5        5S          0.00000   0.00000   4.82204   0.00000   1.65446
   6        6PX         0.00000  -0.18785   0.00000  -0.00326   0.00000
   7        6PY         0.08988   0.00000   0.00000   0.00000   0.00000
   8        6PZ         0.00000   0.00000  -0.16167   0.00000  -0.05623
   9        7PX         0.00000  -1.29123   0.00000   0.00556   0.00000
  10        7PY        -0.69926   0.00000   0.00000   0.00000   0.00000
  11        7PZ         0.00000   0.00000  -1.23430   0.00000  -0.20645
  12        8PX         0.00000   2.52645   0.00000  -0.16732   0.00000
  13        8PY        -1.77842   0.00000   0.00000   0.00000   0.00000
  14        8PZ         0.00000   0.00000   6.08270   0.00000   1.42238
  15        9PX         0.00000  -0.60730   0.00000  -0.03831   0.00000
  16        9PY        -0.01097   0.00000   0.00000   0.00000   0.00000
  17        9PZ         0.00000   0.00000   0.71948   0.00000   0.53764
  18       10D 0        0.00000   0.00000  -0.04219   0.00000  -0.01750
  19       10D+1        0.00000  -0.03722   0.00000  -0.01023   0.00000
  20       10D-1        0.00076   0.00000   0.00000   0.00000   0.00000
  21       10D+2        0.00000   0.00000   0.04536   0.00000   0.03390
  22       10D-2        0.00000   0.00000   0.00000   0.00000   0.00000
  23       11D 0        0.00000   0.00000   0.25396   0.00000   0.58553
  24       11D+1        0.00000   0.20195   0.00000   0.16002   0.00000
  25       11D-1       -0.92539   0.00000   0.00000   0.00000   0.00000
  26       11D+2        0.00000   0.00000  -0.25865   0.00000  -0.11978
  27       11D-2        0.00000   0.00000   0.00000   0.00000   0.00000
  28       12D 0        0.00000   0.00000   0.91180   0.00000  -0.35651
  29       12D+1        0.00000   0.39483   0.00000  -0.38093   0.00000
  30       12D-1        0.22032   0.00000   0.00000   0.00000   0.00000
  31       12D+2        0.00000   0.00000  -1.09965   0.00000  -0.47563
  32       12D-2        0.00000   0.00000   0.00000   0.00000   0.00000
  33       13F 0        0.00000   0.00000   0.02429   0.00000  -0.02543
  34       13F+1        0.00000   0.01772   0.00000  -0.07452   0.00000
  35       13F-1       -0.05621   0.00000   0.00000   0.00000   0.00000
  36       13F+2        0.00000   0.00000  -0.03973   0.00000   0.01595
  37       13F-2        0.00000   0.00000   0.00000   0.00000   0.00000
  38       13F+3        0.00000  -0.03136   0.00000  -0.02992   0.00000
  39       13F-3        0.01646   0.00000   0.00000   0.00000   0.00000
  40       14F 0        0.00000   0.00000  -0.27515   0.00000   0.01755
  41       14F+1        0.00000   0.03464   0.00000   0.63997   0.00000
  42       14F-1       -0.10182   0.00000   0.00000   0.00000   0.00000
  43       14F+2        0.00000   0.00000  -0.29879   0.00000  -0.54700
  44       14F-2        0.00000   0.00000   0.00000   0.00000   0.00000
  45       14F+3        0.00000  -0.13531   0.00000   0.29256   0.00000
  46       14F-3        0.19195   0.00000   0.00000   0.00000   0.00000
  47       15G 0        0.00000   0.00000  -0.06176   0.00000  -0.04806
  48       15G+1        0.00000  -0.00582   0.00000  -0.00172   0.00000
  49       15G-1       -0.00482   0.00000   0.00000   0.00000   0.00000
  50       15G+2        0.00000   0.00000  -0.10911   0.00000  -0.02054
  51       15G-2        0.00000   0.00000   0.00000   0.00000   0.00000
  52       15G+3        0.00000  -0.09137   0.00000   0.01123   0.00000
  53       15G-3       -0.01592   0.00000   0.00000   0.00000   0.00000
  54       15G+4        0.00000   0.00000   0.02033   0.00000   0.02661
  55       15G-4        0.00000   0.00000   0.00000   0.00000   0.00000
  56 2   H  1S         -0.03259   0.00000   0.03450   0.00000   0.02076
  57        2S         -1.08031   0.00000  -0.50486   0.00000  -0.21601
  58        3S          3.69368   0.00000  -4.95313   0.00000  -1.75324
  59        4S         -0.66046   0.00000  -0.82733   0.00000  -0.28943
  60        5PX         0.00000   0.02540   0.00000  -0.00779   0.00000
  61        5PY         0.04949   0.00000  -0.03543   0.00000   0.03318
  62        5PZ         0.05424   0.00000  -0.01191   0.00000  -0.06096
  63        6PX         0.00000  -0.14100   0.00000   0.04636   0.00000
  64        6PY        -0.23652   0.00000   0.43697   0.00000  -0.06072
  65        6PZ        -0.29135   0.00000   0.29712   0.00000   0.52032
  66        7PX         0.00000  -0.52740   0.00000   0.12872   0.00000
  67        7PY        -1.27994   0.00000   1.77903   0.00000   0.57154
  68        7PZ        -0.76698   0.00000   0.63913   0.00000   0.13719
  69        8D 0        0.00356   0.00000  -0.00432   0.00000   0.00683
  70        8D+1        0.00000  -0.00870   0.00000  -0.03715   0.00000
  71        8D-1       -0.01091   0.00000  -0.02475   0.00000   0.01274
  72        8D+2        0.00080   0.00000  -0.00491   0.00000   0.04399
  73        8D-2        0.00000  -0.00844   0.00000   0.03727   0.00000
  74        9D 0        0.00210   0.00000   0.10603   0.00000  -0.08696
  75        9D+1        0.00000   0.19274   0.00000   0.22216   0.00000
  76        9D-1        0.37740   0.00000  -0.05486   0.00000  -0.23809
  77        9D+2       -0.20122   0.00000   0.23377   0.00000  -0.26173
  78        9D-2        0.00000   0.21652   0.00000  -0.24741   0.00000
  79       10F 0        0.02729   0.00000  -0.01783   0.00000  -0.01332
  80       10F+1        0.00000  -0.01447   0.00000   0.02142   0.00000
  81       10F-1       -0.02246   0.00000  -0.03084   0.00000  -0.00988
  82       10F+2        0.05324   0.00000   0.00926   0.00000  -0.00870
  83       10F-2        0.00000  -0.03880   0.00000   0.00268   0.00000
  84       10F+3        0.00000   0.03081   0.00000   0.01241   0.00000
  85       10F-3        0.03709   0.00000  -0.00624   0.00000  -0.00291
  86 3   H  1S          0.03259   0.00000   0.03450   0.00000   0.02076
  87        2S          1.08031   0.00000  -0.50486   0.00000  -0.21601
  88        3S         -3.69368   0.00000  -4.95313   0.00000  -1.75324
  89        4S          0.66046   0.00000  -0.82733   0.00000  -0.28943
  90        5PX         0.00000   0.02540   0.00000  -0.00779   0.00000
  91        5PY         0.04949   0.00000   0.03543   0.00000  -0.03318
  92        5PZ        -0.05424   0.00000  -0.01191   0.00000  -0.06096
  93        6PX         0.00000  -0.14100   0.00000   0.04636   0.00000
  94        6PY        -0.23652   0.00000  -0.43697   0.00000   0.06072
  95        6PZ         0.29135   0.00000   0.29712   0.00000   0.52032
  96        7PX         0.00000  -0.52740   0.00000   0.12872   0.00000
  97        7PY        -1.27994   0.00000  -1.77903   0.00000  -0.57154
  98        7PZ         0.76698   0.00000   0.63913   0.00000   0.13719
  99        8D 0       -0.00356   0.00000  -0.00432   0.00000   0.00683
 100        8D+1        0.00000  -0.00870   0.00000  -0.03715   0.00000
 101        8D-1       -0.01091   0.00000   0.02475   0.00000  -0.01274
 102        8D+2       -0.00080   0.00000  -0.00491   0.00000   0.04399
 103        8D-2        0.00000   0.00844   0.00000  -0.03727   0.00000
 104        9D 0       -0.00210   0.00000   0.10603   0.00000  -0.08696
 105        9D+1        0.00000   0.19274   0.00000   0.22216   0.00000
 106        9D-1        0.37740   0.00000   0.05486   0.00000   0.23809
 107        9D+2        0.20122   0.00000   0.23377   0.00000  -0.26173
 108        9D-2        0.00000  -0.21652   0.00000   0.24741   0.00000
 109       10F 0       -0.02729   0.00000  -0.01783   0.00000  -0.01332
 110       10F+1        0.00000  -0.01447   0.00000   0.02142   0.00000
 111       10F-1       -0.02246   0.00000   0.03084   0.00000   0.00988
 112       10F+2       -0.05324   0.00000   0.00926   0.00000  -0.00870
 113       10F-2        0.00000   0.03880   0.00000  -0.00268   0.00000
 114       10F+3        0.00000   0.03081   0.00000   0.01241   0.00000
 115       10F-3        0.03709   0.00000   0.00624   0.00000   0.00291
                          31        32        33        34        35
                           V         V         V         V         V
     Eigenvalues --     1.85481   1.91679   1.98390   2.02728   2.04578
   1 1   C  1S          0.00000   0.00000   0.00000   0.04416   0.00000
   2        2S          0.00000   0.00000   0.00000  -0.19183   0.00000
   3        3S          0.00000   0.00000   0.00000  -1.44500   0.00000
   4        4S          0.00000   0.00000   0.00000   3.08802   0.00000
   5        5S          0.00000   0.00000   0.00000  -0.15998   0.00000
   6        6PX         0.00000   0.00000  -0.04278   0.00000   0.00000
   7        6PY        -0.20526   0.00000   0.00000   0.00000  -0.03571
   8        6PZ         0.00000   0.00000   0.00000   0.00738   0.00000
   9        7PX         0.00000   0.00000  -0.11710   0.00000   0.00000
  10        7PY        -0.92654   0.00000   0.00000   0.00000  -0.57826
  11        7PZ         0.00000   0.00000   0.00000   0.32704   0.00000
  12        8PX         0.00000   0.00000   0.21504   0.00000   0.00000
  13        8PY        11.20543   0.00000   0.00000   0.00000   4.04803
  14        8PZ         0.00000   0.00000   0.00000  -0.22242   0.00000
  15        9PX         0.00000   0.00000   0.17908   0.00000   0.00000
  16        9PY         1.30395   0.00000   0.00000   0.00000   1.26372
  17        9PZ         0.00000   0.00000   0.00000   0.03645   0.00000
  18       10D 0        0.00000   0.00000   0.00000   0.01702   0.00000
  19       10D+1        0.00000   0.00000  -0.05378   0.00000   0.00000
  20       10D-1       -0.11549   0.00000   0.00000   0.00000  -0.05257
  21       10D+2        0.00000   0.00000   0.00000   0.01345   0.00000
  22       10D-2        0.00000  -0.04082   0.00000   0.00000   0.00000
  23       11D 0        0.00000   0.00000   0.00000   0.13933   0.00000
  24       11D+1        0.00000   0.00000   0.99710   0.00000   0.00000
  25       11D-1        1.24742   0.00000   0.00000   0.00000  -0.08489
  26       11D+2        0.00000   0.00000   0.00000   0.19469   0.00000
  27       11D-2        0.00000   0.90380   0.00000   0.00000   0.00000
  28       12D 0        0.00000   0.00000   0.00000  -1.10228   0.00000
  29       12D+1        0.00000   0.00000  -0.40422   0.00000   0.00000
  30       12D-1        3.60327   0.00000   0.00000   0.00000   2.06686
  31       12D+2        0.00000   0.00000   0.00000  -1.30139   0.00000
  32       12D-2        0.00000  -0.59776   0.00000   0.00000   0.00000
  33       13F 0        0.00000   0.00000   0.00000   0.03763   0.00000
  34       13F+1        0.00000   0.00000   0.01615   0.00000   0.00000
  35       13F-1        0.05129   0.00000   0.00000   0.00000  -0.00254
  36       13F+2        0.00000   0.00000   0.00000  -0.04197   0.00000
  37       13F-2        0.00000  -0.00367   0.00000   0.00000   0.00000
  38       13F+3        0.00000   0.00000   0.02983   0.00000   0.00000
  39       13F-3       -0.08815   0.00000   0.00000   0.00000   0.06565
  40       14F 0        0.00000   0.00000   0.00000  -0.75886   0.00000
  41       14F+1        0.00000   0.00000  -0.02479   0.00000   0.00000
  42       14F-1        0.23879   0.00000   0.00000   0.00000  -0.32354
  43       14F+2        0.00000   0.00000   0.00000  -0.08580   0.00000
  44       14F-2        0.00000   0.10600   0.00000   0.00000   0.00000
  45       14F+3        0.00000   0.00000  -0.41027   0.00000   0.00000
  46       14F-3       -0.05601   0.00000   0.00000   0.00000  -1.13280
  47       15G 0        0.00000   0.00000   0.00000  -0.02002   0.00000
  48       15G+1        0.00000   0.00000  -0.01215   0.00000   0.00000
  49       15G-1       -0.05006   0.00000   0.00000   0.00000  -0.10271
  50       15G+2        0.00000   0.00000   0.00000   0.00516   0.00000
  51       15G-2        0.00000  -0.02103   0.00000   0.00000   0.00000
  52       15G+3        0.00000   0.00000   0.00623   0.00000   0.00000
  53       15G-3       -0.11324   0.00000   0.00000   0.00000  -0.10506
  54       15G+4        0.00000   0.00000   0.00000   0.06147   0.00000
  55       15G-4        0.00000   0.03293   0.00000   0.00000   0.00000
  56 2   H  1S          0.05932   0.00000   0.00000   0.02581   0.02952
  57        2S          0.04729   0.00000   0.00000  -0.02014  -0.47760
  58        3S        -10.76025   0.00000   0.00000  -1.39065  -3.23788
  59        4S         -0.26047   0.00000   0.00000   0.21432  -0.34287
  60        5PX         0.00000  -0.06674  -0.05132   0.00000   0.00000
  61        5PY        -0.07028   0.00000   0.00000   0.00098  -0.02298
  62        5PZ        -0.06240   0.00000   0.00000  -0.06412  -0.00934
  63        6PX         0.00000   0.47546   0.37401   0.00000   0.00000
  64        6PY         0.72649   0.00000   0.00000   0.09686   0.40296
  65        6PZ         0.59730   0.00000   0.00000   0.51937   0.23613
  66        7PX         0.00000  -0.25159  -0.43916   0.00000   0.00000
  67        7PY         2.98737   0.00000   0.00000  -0.37154  -0.18015
  68        7PZ         2.71472   0.00000   0.00000   0.77975   1.02207
  69        8D 0        0.01107   0.00000   0.00000   0.03469  -0.02481
  70        8D+1        0.00000   0.01903   0.01328   0.00000   0.00000
  71        8D-1       -0.02140   0.00000   0.00000  -0.03100  -0.00517
  72        8D+2        0.00793   0.00000   0.00000  -0.01228   0.03405
  73        8D-2        0.00000   0.01194   0.01191   0.00000   0.00000
  74        9D 0       -0.20533   0.00000   0.00000  -0.40478  -0.09325
  75        9D+1        0.00000  -0.14519  -0.02722   0.00000   0.00000
  76        9D-1       -0.42694   0.00000   0.00000   0.05698  -0.11291
  77        9D+2        0.24469   0.00000   0.00000   0.07550  -0.29680
  78        9D-2        0.00000  -0.08315  -0.04551   0.00000   0.00000
  79       10F 0       -0.00687   0.00000   0.00000  -0.00393   0.05497
  80       10F+1        0.00000  -0.00527  -0.01991   0.00000   0.00000
  81       10F-1        0.03132   0.00000   0.00000   0.02306   0.03679
  82       10F+2       -0.02521   0.00000   0.00000  -0.00322   0.02459
  83       10F-2        0.00000  -0.01944  -0.03158   0.00000   0.00000
  84       10F+3        0.00000   0.01878   0.01188   0.00000   0.00000
  85       10F-3        0.00033   0.00000   0.00000   0.01537   0.01789
  86 3   H  1S         -0.05932   0.00000   0.00000   0.02581  -0.02952
  87        2S         -0.04729   0.00000   0.00000  -0.02014   0.47760
  88        3S         10.76025   0.00000   0.00000  -1.39065   3.23788
  89        4S          0.26047   0.00000   0.00000   0.21432   0.34287
  90        5PX         0.00000   0.06674  -0.05132   0.00000   0.00000
  91        5PY        -0.07028   0.00000   0.00000  -0.00098  -0.02298
  92        5PZ         0.06240   0.00000   0.00000  -0.06412   0.00934
  93        6PX         0.00000  -0.47546   0.37401   0.00000   0.00000
  94        6PY         0.72649   0.00000   0.00000  -0.09686   0.40296
  95        6PZ        -0.59730   0.00000   0.00000   0.51937  -0.23613
  96        7PX         0.00000   0.25159  -0.43916   0.00000   0.00000
  97        7PY         2.98737   0.00000   0.00000   0.37154  -0.18015
  98        7PZ        -2.71472   0.00000   0.00000   0.77975  -1.02207
  99        8D 0       -0.01107   0.00000   0.00000   0.03469   0.02481
 100        8D+1        0.00000  -0.01903   0.01328   0.00000   0.00000
 101        8D-1       -0.02140   0.00000   0.00000   0.03100  -0.00517
 102        8D+2       -0.00793   0.00000   0.00000  -0.01228  -0.03405
 103        8D-2        0.00000   0.01194  -0.01191   0.00000   0.00000
 104        9D 0        0.20533   0.00000   0.00000  -0.40478   0.09325
 105        9D+1        0.00000   0.14519  -0.02722   0.00000   0.00000
 106        9D-1       -0.42694   0.00000   0.00000  -0.05698  -0.11291
 107        9D+2       -0.24469   0.00000   0.00000   0.07550   0.29680
 108        9D-2        0.00000  -0.08315   0.04551   0.00000   0.00000
 109       10F 0        0.00687   0.00000   0.00000  -0.00393  -0.05497
 110       10F+1        0.00000   0.00527  -0.01991   0.00000   0.00000
 111       10F-1        0.03132   0.00000   0.00000  -0.02306   0.03679
 112       10F+2        0.02521   0.00000   0.00000  -0.00322  -0.02459
 113       10F-2        0.00000  -0.01944   0.03158   0.00000   0.00000
 114       10F+3        0.00000  -0.01878   0.01188   0.00000   0.00000
 115       10F-3        0.00033   0.00000   0.00000  -0.01537   0.01789
                          36        37        38        39        40
                           V         V         V         V         V
     Eigenvalues --     2.10391   2.12399   2.14390   2.17262   2.28636
   1 1   C  1S         -0.02073   0.00000   0.00000   0.00000   0.09309
   2        2S         -0.03092   0.00000   0.00000   0.00000  -0.34003
   3        3S         -0.90725   0.00000   0.00000   0.00000  -2.94326
   4        4S          1.86314   0.00000   0.00000   0.00000  10.69808
   5        5S          2.52767   0.00000   0.00000   0.00000   2.67900
   6        6PX         0.00000   0.00000  -0.01771   0.00000   0.00000
   7        6PY         0.00000   0.04747   0.00000   0.00000   0.00000
   8        6PZ         0.02579   0.00000   0.00000   0.00000  -0.09410
   9        7PX         0.00000   0.00000  -0.15229   0.00000   0.00000
  10        7PY         0.00000  -0.24032   0.00000   0.00000   0.00000
  11        7PZ        -0.26203   0.00000   0.00000   0.00000   0.05512
  12        8PX         0.00000   0.00000   1.71166   0.00000   0.00000
  13        8PY         0.00000   0.12637   0.00000   0.00000   0.00000
  14        8PZ         1.83705   0.00000   0.00000   0.00000   5.05678
  15        9PX         0.00000   0.00000   0.33519   0.00000   0.00000
  16        9PY         0.00000   0.26008   0.00000   0.00000   0.00000
  17        9PZ         0.81848   0.00000   0.00000   0.00000   1.01777
  18       10D 0        0.03225   0.00000   0.00000   0.00000  -0.00240
  19       10D+1        0.00000   0.00000  -0.01931   0.00000   0.00000
  20       10D-1        0.00000  -0.09123   0.00000   0.00000   0.00000
  21       10D+2        0.04080   0.00000   0.00000   0.00000  -0.02101
  22       10D-2        0.00000   0.00000   0.00000  -0.05417   0.00000
  23       11D 0       -0.62993   0.00000   0.00000   0.00000  -0.16432
  24       11D+1        0.00000   0.00000  -0.20186   0.00000   0.00000
  25       11D-1        0.00000  -0.10587   0.00000   0.00000   0.00000
[...]
 100        8D+1        0.00000   0.00000   0.00000   0.00000   0.00000
 101        8D-1        0.00000   0.00000   0.00000   0.00000   0.00000
 102        8D+2        0.00000   0.00000   0.00000   0.00000   0.00000
 103        8D-2        0.00000   0.00000   0.00000   0.00000   0.00000
 104        9D 0        0.00000   0.00000   0.00000   0.00000   0.00000
 105        9D+1        0.00000   0.00000   0.00000   0.00000   0.00000
 106        9D-1        0.00000   0.00000   0.00000   0.00000   0.00000
 107        9D+2        0.00000   0.00000   0.00000   0.00000   0.00000
 108        9D-2        0.00000   0.00000   0.00000   0.00000   0.00000
 109       10F 0        0.00000   0.00000   0.00000   0.00000   0.00000
 110       10F+1        0.00000   0.00000   0.00000   0.00000   0.00000
 111       10F-1        0.00000   0.00000   0.00000   0.00000   0.00000
 112       10F+2        0.00000   0.00000   0.00000   0.00000   0.00000
 113       10F-2        0.00000   0.00000   0.00000   0.00000   0.00000
 114       10F+3        0.00000   0.00000   0.00000   0.00000   0.00000
 115       10F-3        0.00000   0.00000   0.00000   0.00000   0.00000
                          91        92        93        94        95
  91        5PY         0.00004
  92        5PZ         0.00000   0.00003
  93        6PX         0.00000   0.00000   0.00000
  94        6PY         0.00011   0.00000   0.00000   0.00060
  95        6PZ         0.00000   0.00008   0.00000   0.00000   0.00045
  96        7PX         0.00000   0.00000   0.00000   0.00000   0.00000
  97        7PY         0.00004   0.00000   0.00000   0.00041   0.00000
  98        7PZ         0.00000   0.00004   0.00000   0.00000   0.00034
  99        8D 0        0.00000   0.00000   0.00000   0.00000   0.00000
 100        8D+1        0.00000   0.00000   0.00000   0.00000   0.00000
 101        8D-1        0.00000   0.00000   0.00000   0.00000   0.00000
 102        8D+2        0.00000   0.00000   0.00000   0.00000   0.00000
 103        8D-2        0.00000   0.00000   0.00000   0.00000   0.00000
 104        9D 0        0.00000   0.00000   0.00000   0.00000   0.00000
 105        9D+1        0.00000   0.00000   0.00000   0.00000   0.00000
 106        9D-1        0.00000   0.00000   0.00000   0.00000   0.00000
 107        9D+2        0.00000   0.00000   0.00000   0.00000   0.00000
 108        9D-2        0.00000   0.00000   0.00000   0.00000   0.00000
 109       10F 0        0.00000   0.00000   0.00000   0.00000   0.00000
 110       10F+1        0.00000   0.00000   0.00000   0.00000   0.00000
 111       10F-1        0.00000   0.00000   0.00000   0.00000   0.00000
 112       10F+2        0.00000   0.00000   0.00000   0.00000   0.00000
 113       10F-2        0.00000   0.00000   0.00000   0.00000   0.00000
 114       10F+3        0.00000   0.00000   0.00000   0.00000   0.00000
 115       10F-3        0.00000   0.00000   0.00000   0.00000   0.00000
                          96        97        98        99       100
  96        7PX         0.00000
  97        7PY         0.00000   0.00058
  98        7PZ         0.00000   0.00000   0.00055
  99        8D 0        0.00000   0.00000   0.00000   0.00000
 100        8D+1        0.00000   0.00000   0.00000   0.00000   0.00000
 101        8D-1        0.00000   0.00000   0.00000   0.00000   0.00000
 102        8D+2        0.00000   0.00000   0.00000   0.00000   0.00000
 103        8D-2        0.00000   0.00000   0.00000   0.00000   0.00000
 104        9D 0        0.00000   0.00000   0.00000   0.00000   0.00000
 105        9D+1        0.00000   0.00000   0.00000   0.00000   0.00000
 106        9D-1        0.00000   0.00000   0.00000   0.00000   0.00000
 107        9D+2        0.00000   0.00000   0.00000   0.00000   0.00000
 108        9D-2        0.00000   0.00000   0.00000   0.00000   0.00000
 109       10F 0        0.00000   0.00000   0.00000   0.00000   0.00000
 110       10F+1        0.00000   0.00000   0.00000   0.00000   0.00000
 111       10F-1        0.00000   0.00000   0.00000   0.00000   0.00000
 112       10F+2        0.00000   0.00000   0.00000   0.00000   0.00000
 113       10F-2        0.00000   0.00000   0.00000   0.00000   0.00000
 114       10F+3        0.00000   0.00000   0.00000   0.00000   0.00000
 115       10F-3        0.00000   0.00000   0.00000   0.00000   0.00000
                         101       102       103       104       105
 101        8D-1        0.00000
 102        8D+2        0.00000   0.00000
 103        8D-2        0.00000   0.00000   0.00000
 104        9D 0        0.00000   0.00000   0.00000   0.00001
 105        9D+1        0.00000   0.00000   0.00000   0.00000   0.00000
 106        9D-1        0.00001   0.00000   0.00000   0.00000   0.00000
 107        9D+2        0.00000   0.00000   0.00000   0.00000   0.00000
 108        9D-2        0.00000   0.00000   0.00000   0.00000   0.00000
 109       10F 0        0.00000   0.00000   0.00000   0.00000   0.00000
 110       10F+1        0.00000   0.00000   0.00000   0.00000   0.00000
 111       10F-1        0.00000   0.00000   0.00000   0.00000   0.00000
 112       10F+2        0.00000   0.00000   0.00000   0.00000   0.00000
 113       10F-2        0.00000   0.00000   0.00000   0.00000   0.00000
 114       10F+3        0.00000   0.00000   0.00000   0.00000   0.00000
 115       10F-3        0.00000   0.00000   0.00000   0.00000   0.00000
                         106       107       108       109       110
 106        9D-1        0.00005
 107        9D+2        0.00000   0.00001
 108        9D-2        0.00000   0.00000   0.00000
 109       10F 0        0.00000   0.00000   0.00000   0.00000
 110       10F+1        0.00000   0.00000   0.00000   0.00000   0.00000
 111       10F-1        0.00000   0.00000   0.00000   0.00000   0.00000
 112       10F+2        0.00000   0.00000   0.00000   0.00000   0.00000
 113       10F-2        0.00000   0.00000   0.00000   0.00000   0.00000
 114       10F+3        0.00000   0.00000   0.00000   0.00000   0.00000
 115       10F-3        0.00000   0.00000   0.00000   0.00000   0.00000
                         111       112       113       114       115
 111       10F-1        0.00000
 112       10F+2        0.00000   0.00000
 113       10F-2        0.00000   0.00000   0.00000
 114       10F+3        0.00000   0.00000   0.00000   0.00000
 115       10F-3        0.00000   0.00000   0.00000   0.00000   0.00000
     Gross orbital populations:
                           1
   1 1   C  1S          1.24058
   2        2S          0.72045
   3        3S          0.36969
   4        4S          0.93073
   5        5S          0.38055
   6        6PX         0.00000
   7        6PY         0.09381
   8        6PZ         0.12268
   9        7PX         0.00000
  10        7PY         0.33213
  11        7PZ         0.41299
  12        8PX         0.00000
  13        8PY         0.44520
  14        8PZ         0.61429
  15        9PX         0.00000
  16        9PY         0.11116
  17        9PZ         0.32803
  18       10D 0        0.00020
  19       10D+1        0.00000
  20       10D-1        0.00188
  21       10D+2        0.00042
  22       10D-2        0.00000
  23       11D 0        0.00155
  24       11D+1        0.00000
  25       11D-1        0.01462
  26       11D+2        0.00304
  27       11D-2        0.00000
  28       12D 0        0.00468
  29       12D+1        0.00000
  30       12D-1        0.01543
  31       12D+2        0.00353
  32       12D-2        0.00000
  33       13F 0        0.00008
  34       13F+1        0.00000
  35       13F-1        0.00004
  36       13F+2        0.00014
  37       13F-2        0.00000
  38       13F+3        0.00000
  39       13F-3        0.00000
  40       14F 0        0.00023
  41       14F+1        0.00000
  42       14F-1        0.00015
  43       14F+2        0.00052
  44       14F-2        0.00000
  45       14F+3        0.00000
  46       14F-3       -0.00024
  47       15G 0        0.00003
  48       15G+1        0.00000
  49       15G-1        0.00001
  50       15G+2        0.00004
  51       15G-2        0.00000
  52       15G+3        0.00000
  53       15G-3        0.00000
  54       15G+4        0.00000
  55       15G-4        0.00000
  56 2   H  1S          0.06770
  57        2S          0.30862
  58        3S          0.44966
  59        4S          0.06347
  60        5PX         0.00000
  61        5PY         0.00104
  62        5PZ         0.00084
  63        6PX         0.00000
  64        6PY         0.00836
  65        6PZ         0.00691
  66        7PX         0.00000
  67        7PY         0.00454
  68        7PZ         0.01162
  69        8D 0        0.00009
  70        8D+1        0.00000
  71        8D-1        0.00021
  72        8D+2        0.00012
  73        8D-2        0.00000
  74        9D 0        0.00091
  75        9D+1        0.00000
  76        9D-1        0.00086
  77        9D+2        0.00051
  78        9D-2        0.00000
  79       10F 0        0.00004
  80       10F+1        0.00000
  81       10F-1        0.00008
  82       10F+2        0.00006
  83       10F-2        0.00000
  84       10F+3        0.00000
  85       10F-3        0.00003
  86 3   H  1S          0.06770
  87        2S          0.30862
  88        3S          0.44966
  89        4S          0.06347
  90        5PX         0.00000
  91        5PY         0.00104
  92        5PZ         0.00084
  93        6PX         0.00000
  94        6PY         0.00836
  95        6PZ         0.00691
  96        7PX         0.00000
  97        7PY         0.00454
  98        7PZ         0.01162
  99        8D 0        0.00009
 100        8D+1        0.00000
 101        8D-1        0.00021
 102        8D+2        0.00012
 103        8D-2        0.00000
 104        9D 0        0.00091
 105        9D+1        0.00000
 106        9D-1        0.00086
 107        9D+2        0.00051
 108        9D-2        0.00000
 109       10F 0        0.00004
 110       10F+1        0.00000
 111       10F-1        0.00008
 112       10F+2        0.00006
 113       10F-2        0.00000
 114       10F+3        0.00000
 115       10F-3        0.00003
          Condensed to atoms (all electrons):
               1          2          3
     1  C    5.421731   0.363464   0.363464
     2  H    0.363464   0.611466  -0.049259
     3  H    0.363464  -0.049259   0.611466
 Mulliken charges:
               1
     1  C   -0.148658
     2  H    0.074329
     3  H    0.074329
 Sum of Mulliken charges =   0.00000
 Mulliken charges with hydrogens summed into heavy atoms:
               1
     1  C    0.000000
 Electronic spatial extent (au):  <R**2>=             25.0162
 Charge=              0.0000 electrons
 Dipole moment (field-independent basis, Debye):
    X=              0.0000    Y=              0.0000    Z=              1.9056  Tot=              1.9056
 Quadrupole moment (field-independent basis, Debye-Ang):
   XX=             -6.3670   YY=             -7.1476   ZZ=             -9.4283
   XY=              0.0000   XZ=              0.0000   YZ=              0.0000
 Traceless Quadrupole moment (field-independent basis, Debye-Ang):
   XX=              1.2806   YY=              0.5000   ZZ=             -1.7807
   XY=              0.0000   XZ=              0.0000   YZ=              0.0000
 Octapole moment (field-independent basis, Debye-Ang**2):
  XXX=              0.0000  YYY=              0.0000  ZZZ=              2.3506  XYY=              0.0000
  XXY=              0.0000  XXZ=              0.4495  XZZ=              0.0000  YZZ=              0.0000
  YYZ=              1.2392  XYZ=              0.0000
 Hexadecapole moment (field-independent basis, Debye-Ang**3):
 XXXX=             -5.9269 YYYY=            -14.5866 ZZZZ=            -17.4250 XXXY=              0.0000
 XXXZ=              0.0000 YYYX=              0.0000 YYYZ=              0.0000 ZZZX=              0.0000
 ZZZY=              0.0000 XXYY=             -3.6811 XXZZ=             -3.9346 YYZZ=             -4.9329
 XXYZ=              0.0000 YYXZ=              0.0000 ZZXY=              0.0000
 N-N= 6.033775315791D+00 E-N=-1.024314265295D+02  KE= 3.886312087870D+01
 Orbital energies and kinetic energies (alpha):
                                 1                 2
   1         O               -11.291742         16.041033
   2         O                -0.892274          1.259324
   3         O                -0.564346          0.981348
   4         O                -0.396331          1.149855
   5         V                 0.042183          0.670667
   6         V                 0.122257          0.323117
   7         V                 0.187955          0.377906
   8         V                 0.290822          0.392839
   9         V                 0.325660          0.572655
  10         V                 0.381382          1.012862
  11         V                 0.429766          0.725344
  12         V                 0.495222          1.173085
  13         V                 0.518871          1.186645
  14         V                 0.570515          0.814013
  15         V                 0.570936          0.739514
  16         V                 0.598954          0.765757
  17         V                 0.799106          0.941912
  18         V                 0.850297          0.927271
  19         V                 0.855100          1.105338
  20         V                 0.894261          0.962640
  21         V                 0.913710          1.056858
  22         V                 0.988405          1.155695
  23         V                 1.133279          1.616975
  24         V                 1.140042          1.708841
  25         V                 1.437102          2.097469
  26         V                 1.453453          1.940333
  27         V                 1.539646          2.874410
  28         V                 1.637939          2.754265
  29         V                 1.792268          1.994019
  30         V                 1.853308          2.316779
  31         V                 1.854813          2.704796
  32         V                 1.916791          2.449570
  33         V                 1.983896          2.506775
  34         V                 2.027285          2.611902
  35         V                 2.045776          2.346355
  36         V                 2.103911          2.511956
  37         V                 2.123988          2.424119
  38         V                 2.143900          2.400511
  39         V                 2.172620          2.408212
  40         V                 2.286357          3.512075
  41         V                 2.376656          2.530174
  42         V                 2.431809          2.708285
  43         V                 2.458710          2.659040
  44         V                 2.621552          2.870659
  45         V                 2.627775          3.055111
  46         V                 2.660211          3.293103
  47         V                 2.665766          2.884778
  48         V                 2.771880          2.919524
  49         V                 2.831366          3.068822
  50         V                 2.959914          3.134522
  51         V                 3.301871          3.566089
  52         V                 3.413430          3.876102
  53         V                 3.471401          4.317899
  54         V                 3.474714          4.007685
  55         V                 3.517433          3.902702
  56         V                 3.684721          4.546676
  57         V                 3.857083          4.714002
  58         V                 3.896871          4.891684
  59         V                 5.076749          5.514859
  60         V                 5.124670          5.689777
  61         V                 5.266154          5.701050
  62         V                 5.320515          5.958294
  63         V                 5.323878          6.391517
  64         V                 5.481660          8.793172
  65         V                 5.563120          7.572486
  66         V                 5.645276          6.603384
  67         V                 5.736176          6.690569
  68         V                 5.785469          6.850693
  69         V                 5.977258          6.675977
  70         V                 6.052002          8.013887
  71         V                 6.070965          6.752716
  72         V                 6.149486          6.729299
  73         V                 6.169284          7.795210
  74         V                 6.193351          7.685702
  75         V                 6.253894          7.233018
  76         V                 6.300630          6.586315
  77         V                 6.423495          7.415283
  78         V                 6.441634          7.301461
  79         V                 6.477381          7.016209
  80         V                 6.492519          7.510197
  81         V                 6.512440          7.340369
  82         V                 6.700049          8.116210
  83         V                 6.865836          8.884350
  84         V                 6.871674          8.548739
  85         V                 6.969987          8.524704
  86         V                 7.047812          8.729109
  87         V                 7.359920          7.886791
  88         V                 7.551884          7.905262
  89         V                 7.683568          8.338437
  90         V                 7.686545          8.354404
  91         V                 7.819200          8.611435
  92         V                 7.835495          8.591148
  93         V                 7.884661          8.913223
  94         V                 7.898720          8.588739
  95         V                 7.982802          8.829793
  96         V                 8.124165          8.877452
  97         V                 8.363274          8.869481
  98         V                 8.383735          8.892555
  99         V                 8.457660          9.048450
 100         V                 8.508809          9.115047
 101         V                 8.624526          9.604411
 102         V                 8.758387         10.018605
 103         V                 8.789655          9.350829
 104         V                 8.850511          9.527475
 105         V                 8.871433         10.413868
 106         V                 9.254327          9.984760
 107         V                 9.940985         11.120635
 108         V                 9.951378         11.229300
 109         V                10.032599         11.383421
 110         V                10.087469         10.891346
 111         V                10.390219         11.814771
 112         V                10.500746         11.446897
 113         V                11.139082         14.624360
 114         V                12.560634         15.490729
 115         V                24.293539         54.364891
 Total kinetic energy from orbitals= 3.886312087870D+01
 No NMR shielding tensors so no spin-rotation constants.
 Leave Link  601 at Tue Dec 19 12:53:51 2023, MaxMem=  1342177280 cpu:               0.4 elap:               0.1
 (Enter /home/yingjin/Quantum_Soft/g16/l9999.exe)
 1\1\GINC-RYZEN7\SP\RHF\CC-pVQZ\C1H2\YINGJIN\19-Dec-2023\0\\#p HF cc-pv
 qz nosym pop=full\\geom\\0,1\C,0,0.,0.,-0.13375\H,0,0.,0.86110687,0.56
 493031\H,0,0.,-0.86110687,0.56493031\\Version=ES64L-G16RevA.03\HF=-38.
 8950716\RMSD=1.611e-09\Dipole=0.,0.,0.7497117\Quadrupole=0.9521185,0.3
 717518,-1.3238703,0.,0.,0.\PG=C02V [C2(C1),SGV(H2)]\\@


 QUHEN THE CAUSS IS TAKEN AWAY THE EFFECT WANISHETH.
 -- PROVERBS AND REASONS OF THE YEAR 1585
           AS REPRINTED IN PAISLEY MAGAZINE 1828.
 Job cpu time:       0 days  0 hours  0 minutes  4.7 seconds.
 Elapsed time:       0 days  0 hours  0 minutes  1.3 seconds.
 File lengths (MBytes):  RWF=     10 Int=      0 D2E=      0 Chk=      2 Scr=      1
 Normal termination of Gaussian 16 at Tue Dec 19 12:53:51 2023.
