[Molden Format]
[Molpro variables]
_NUMVAR=  782.0000000000000    
_AVOGAD= 0.6022136736000000E+24
_BOLTZ= 0.1380658000000000E-22
_CLIGHT=  29979245800.00000    
_EV2006= 0.3674930886769165E-01
_EV= 0.3674932534394180E-01
_ENULL= 0.8854187817000000E-11
_KJOULE= 0.3808798324128737E-03
_KJOULE/MOL= 0.3808798324128737E-03
_CM= 0.4556335267302901E-05
_CM-1= 0.4556335267302901E-05
_DEB2SI= 0.3335641000000000E-29
_AMU2AU=  1822.888390000000    
_KCAL= 0.1593601117815568E-02
_KCAL/MOL= 0.1593601117815568E-02
_KELVIN2006= 0.3166828861084835E-05
_KELVIN= 0.3166814820820034E-05
_JOULE= 0.4359748200000000E-17
_HERTZ2006= 0.1519829850815779E-15
_HERTZ= 0.1519829846011223E-15
_HZ2006= 0.1519829850815779E-15
_HZ= 0.1519829846011223E-15
_JPCAL=  4.184000000000000    
_PLANCK= 0.6626075540000000E-33
_TOA2006= 0.5291772490000000    
_TOA= 0.5291772090000000    
_TOANG2006= 0.5291772490000000    
_TOANG= 0.5291772090000000    
_TORAD= 0.1745329251994330E-01
_TOCM=  219474.6306700000    
_TODEBYE=  2.541580000000000    
_TOEV2006=  27.21139610000000    
_TOE= 0.4803242000000000E-09
_TOEV=  27.21138390000000    
_TOHERTZ2006=  6579683899900000.    
_TOHERTZ=  6579683920700000.    
_TOHZ2006=  6579683899900000.    
_TOHZ=  6579683920700000.    
_TOK2006=  315773.3000000000    
_TOK=  315774.7000000000    
_TOKCAL=  627.5096000000000    
_TOKELVIN2006=  315773.3000000000    
_TOKELVIN=  315774.7000000000    
_TOKJ=  2625.500000000000    
_TOKJOULE=  2625.500000000000    
_TOKG= 0.1660565586000000E-26
_ANG2006=  1.889725988578923    
_ANG=  1.889726131421507    
_ANGSTROM2006=  1.889725988578923    
_ANGSTROM=  1.889726131421507    
_RPAREF=  0.000000000000000    
_RPADISS=  0.000000000000000    
_IGNORE_UNDEF=  2.000000000000000    
_STRICTCHECK=  0.000000000000000    
_SEW_ONEEL=  0.000000000000000    
_CPPDONE=FALSE
_DKROLL_DONE=  0.000000000000000    
_FOCKDONE=TRUE
_GRADONE=FALSE
_HESSDONE=FALSE
_INTDONE=TRUE
_SCFDONE=TRUE
_MODUL_BLOCK=FALSE
_MODUL_CUDA=FALSE
_MODUL_SLATER=FALSE
_MODUL_MRCC=FALSE
_MODUL_NBO6=FALSE
_MODUL_NECI=TRUE
_MODUL_AIMS=TRUE
_MRCC_EXEC=
_FITC_AO_SAVED=FALSE
_FITC_MO_SAVED=FALSE
_SHARED_FS=TRUE
_LSTYP=SEWARD
_INTYP=INTS
_GEOMTYP=ZMAT
_GRADTYP=ALASKA
_DIRECT=FALSE
_DKHO= -1.000000000000000    
_SYNCM=  0.000000000000000    
_BASIS=USERDEF
_ZORIENT=  1.000000000000000    
_NELEC=  18.00000000000000    
!SPIN=  0.000000000000000    
_QSDSTEP=  0.000000000000000    
_QSDIRC=  0.000000000000000    
_PROGRAM=HF-SCF
_CPUSTEP= 0.2400000000000000    
_SYSSTEP= 0.9999999999999995E-02
_WALLSTEP= 0.2500000000000000    
!DFSCF=  0.000000000000000    
!SCSGRD=  0.000000000000000    
_BASINP=  610.0000000000000    
_CARTESIAN=TRUE
_CPUTOT= 0.6000000000000000    
_CPUSORT= 0.1100000000000000    
_SYSSORT= 0.5000000000000000E-01
_WALLSORT= 0.1500000022351742    
_DFTEXFAC=  1.000000000000000    
_DMX=-0.1402003152616611E-14
_DMY=-0.2512267903224970E-14
_DMZ=-0.6394884621840902E-13
_DMX_SCF=-0.1402003152616611E-14
_DMY_SCF=-0.2512267903224970E-14
_DMZ_SCF=-0.6394884621840902E-13
_EHOMO=-0.6517985828984179    
_ELUMO= 0.1457988820518386    
_ENERGY= -198.7585898980930    
_ENUC=  31.75063253999999    
_EPS1= -26.42326628629386    
_GRADEXFAC=  9999.000000000000    
_GRADMETHOD=  1.000000000000000    
_NMRMETHOD=  0.000000000000000    
!GRID_FREEZE= -1.000000000000000    
_ITERATIONS=  8.000000000000000    
_LASTNELEC=  18.00000000000000    
_LASTSPIN=  0.000000000000000    
_LASTSYM=  1.000000000000000    
_MPP_PROG=  0.000000000000000    
_NPROC_MPP=  1.000000000000000    
_NPROC_MPPX=  1.000000000000000    
_NPROC_SMP=  1.000000000000000    
_NUMSTEP=  0.000000000000000    
_ORBITAL=  2100.200000000000    
_PI=  3.141592653589793    
_SEIG_MIN= 0.2480793403549370E-02
_SEWPROP=TRUE
_STATUS=  1.000000000000000    
_SYSTOT= 0.1000000000000000    
_VERSION=  2012001.000000000    
_WALLTOT= 0.7200000000000000    
_DATE=13-Sep-17
_LASTORB=RHF
_MACHINE=Linux-2.6.32-431.el6.x86_64/gpu04(x86_64) 64 bit serial version
_OUTPUT=/zxqu/zzj/MOLPRO.xml
_PGROUP=C1
_TIME=08:10:12
_LIBMOL=/opt/soft/molpro/molprop_2012_1_Linux_x86_64_i8/lib/
!VIBCNT=  0.000000000000000    
!RGHFCNT=  0.000000000000000    
!SURFREC=  0.000000000000000    
!POLYREC=  0.000000000000000    
!DIPREC=  0.000000000000000    
!VSCFREC=  0.000000000000000    
!VCIREC=  0.000000000000000    
!PVCIREC=  0.000000000000000    
!VMP2REC=  0.000000000000000    
!VMCSCFREC=  0.000000000000000    
!VMRCIREC=  0.000000000000000    
!VIBINFO=  0.000000000000000    
!GAREC=  0.000000000000000    
!SCFORB=  21002.00000000000    
!NEWMOL= -1.000000000000000    
!NEWSYM= -1.000000000000000    
_SLFILES=slscratch
_NGSSTO=  9.000000000000000    
_SIN=SIN
_COS=COS
_TAN=TAN
_ACOS=ACOS
_ASIN=ASIN
_ATAN=ATAN
_COSH=COSH
_SINH=SINH
_TANH=TANH
_ABS=ABS
_MOD=MOD
_ERF=ERF
_REFC=REFC
_ERFC=ERFC
_HYPOT=HYPOT
_J0=J0
_J1=J1
_JN=JN
_GAMMA=GAMMA
_LGAMMA=LGAMMA
_Y0=Y0
_Y1=Y1
_YN=YN
_EXP=EXP
_LOG=LOG
_LOG10=LOG10
_SQRT=SQRT
_INT=INT
_NINT=NINT
_MAX=MAX
_MIN=MIN
_COSMO=  0.000000000000000    
_COSMOIT=  0.000000000000000    
_COSMOES=  0.000000000000000    
_COSMOEDS=  0.000000000000000    
_COSMOEC=  0.000000000000000    
_COSMOEDCORR=  0.000000000000000    
_FEPSI=  1.000000000000000    
_SL_IsMM=  0.000000000000000    
_SL_NSYM=  1.000000000000000    
_SL_System_BitSw=  0.000000000000000    
_SL_Unique_atoms=  0.000000000000000    
_SL_GRAD=  0.000000000000000    
_SL_MAXUPD_Hess=  5.000000000000000    
_SL_N_PRINT_COD=  5.000000000000000    
_SL_PRINT_CODES=  0.000000000000000    
_SL_BasType=  0.000000000000000    
_SL_Energy_Pred=  0.000000000000000    
_SL_New_Coords=  0.000000000000000    
_SL_Total_Nuclea=  0.000000000000000    
_SL_Highest_Mltp=  0.000000000000000    
_SL_Ref_Geom=  0.000000000000000    
_SL_Symmetry_ope=  1.000000000000000    
_SL_agrad=  0.000000000000000    
_SL_GrdMax=  0.000000000000000    
_SL_GrdNorm=  0.000000000000000    
_SL_GrdRMS=  0.000000000000000    
_SL_Hss_Q=  0.000000000000000    
_SL_Hss_X=  0.000000000000000    
_SL_BMxOld=  0.000000000000000    
_SL_KtB=  0.000000000000000    
!LATTICE= -1.000000000000000    
!NEWLATTICE=  0.000000000000000    
!LATGRAD_VAR=FALSE
!SEW_LATTICE=  1.000000000000000    
!LOCAL=  0.000000000000000    
!SAVEDOM= -1.000000000000000    
!RESTDOM= -1.000000000000000    
!SAVEDOM_HF= -1.000000000000000    
!RESTDOM_HF= -1.000000000000000    
!HESSREC=  0.000000000000000    
!FREQREC=  0.000000000000000    
!NMODREC=  0.000000000000000    
!GTASKS=  0.000000000000000    
!HTASKS=  0.000000000000000    
!THRCHG= 0.1000000000000000    
!DEBUG= -1.000000000000000    
!CFIT_CPHF=  0.000000000000000    
!RDOMAUX_CPHF=  3.000000000000000    
!THRAO_CPHF= 0.1000000000000000E-09
!THRMO_CPHF= 0.1000000000000000E-08
!THROV_CPHF= 0.1000000000000000E-11
!THRSW_CPHF= 0.1000000000000000E-09
!THRPROD_CPHF= 0.1000000000000000E-08
!THRAOPR_CPHF= 0.1000000000000000E-11
!CFIT_SCFGRD=  0.000000000000000    
!RDOMAUX_SCFGRD=  5.000000000000000    
!THRAO_SCFGRD= 0.1000000000000000E-09
!THRMO_SCFGRD= 0.1000000000000000E-08
!THROV_SCFGRD= 0.1000000000000000E-11
!THRSW_SCFGRD= 0.1000000000000000E-09
!THRPROD_SCFGRD= 0.1000000000000000E-08
!THRAOPR_SCFGRD= 0.1000000000000000E-11
!LOCFIT_SCF=  0.000000000000000    
!LOCFIT_MP2= -1.000000000000000    
_RIDOM=  0.000000000000000    
!CC2_METHOD=  0.000000000000000    
_BASIS2006=FALSE
_SVDDEL= -1.000000000000000    
_SVDDELA= -1.000000000000000    
_SVDDELP= -1.000000000000000    
_SVDDELF= -1.000000000000000    
_SVDDELS= -1.000000000000000    
_SVDDEL_ABS= -1.000000000000000    
_SVDDELA_ABS= -1.000000000000000    
_SVDDELP_ABS= -1.000000000000000    
_SVDDELF_ABS= -1.000000000000000    
_SVDDELS_ABS= -1.000000000000000    
_MAXBASIS=  0.000000000000000    
!OPT_CONICAL=  0.000000000000000    
!CLEARSP_JGRID=  0.000000000000000    
_4EXT_NDISKS=  1.000000000000000    
!ZMP=  0.000000000000000    
_MAXIT_ZMP=  500.0000000000000    
_MAXDIS_ZMP=  100.0000000000000    
_ACCU_ZMP=  14.00000000000000    
_SHIFTA_ZMP= -100.0000000000000    
!EMBEDFLAG=  1.000000000000000    
!EMBED=FALSE
!EMBED_F12=FALSE
!EMBEDNUC=  0.000000000000000    
_EMBEDENERGY=  0.000000000000000    
_KSPACETIME=  0.000000000000000    
_RSPACETIME=  0.000000000000000    
!EMBED_DFC=FALSE
!NUM_VOIDS=  0.000000000000000    
_IBODY=  0.000000000000000    
_EMBE_TOTAL=  0.000000000000000    
_EMBE_HF=  0.000000000000000    
_EMBE_CORR=  0.000000000000000    
!EDFT=  0.000000000000000    
_IFASTLATGRAD=  0.000000000000000    
_SINDEX=  0.000000000000000    
GX1=  0.000000000000000    
GY1=  0.000000000000000    
GZ1=  1.350000000000000    
GX2=  0.000000000000000    
GY2=  0.000000000000000    
GZ2=  0.000000000000000    
[Atoms] Angs
F     1    9         0.0000000000        0.0000000000        1.3500000000
F     2    9         0.0000000000        0.0000000000        0.0000000000
[GTO]
  1 0
 s    8  1.00
  0.1950000000D+05  0.5193715996D-03
  0.2923000000D+04  0.4018727387D-02
  0.6645000000D+03  0.2069291186D-01
  0.1875000000D+03  0.8093796861D-01
  0.6062000000D+02  0.2360620750D+00
  0.2142000000D+02  0.4434347595D+00
  0.7950000000D+01  0.3585036736D+00
  0.8815000000D+00 -0.8084577247D-02
 s    8  1.00
  0.1950000000D+05 -0.1995911530D-03
  0.2923000000D+04 -0.1555787449D-02
  0.6645000000D+03 -0.8046764688D-02
  0.1875000000D+03 -0.3255894654D-01
  0.6062000000D+02 -0.1017658994D+00
  0.2142000000D+02 -0.2388440797D+00
  0.7950000000D+01 -0.3015737026D+00
  0.8815000000D+00  0.1032147265D+01
 s    1  1.00
  0.2257000000D+01  0.1000000000D+01
 s    1  1.00
  0.3041000000D+00  0.1000000000D+01
 p    3  1.00
  0.4388000000D+02  0.4190462069D-01
  0.9926000000D+01  0.2626978417D+00
  0.2930000000D+01  0.7977593735D+00
 p    1  1.00
  0.9132000000D+00  0.1000000000D+01
 p    1  1.00
  0.2672000000D+00  0.1000000000D+01
 d    1  1.00
  0.3107000000D+01  0.1000000000D+01
 d    1  1.00
  0.8550000000D+00  0.1000000000D+01
 f    1  1.00
  0.1917000000D+01  0.1000000000D+01
  
  2 0
 s    8  1.00
  0.1950000000D+05  0.5193715996D-03
  0.2923000000D+04  0.4018727387D-02
  0.6645000000D+03  0.2069291186D-01
  0.1875000000D+03  0.8093796861D-01
  0.6062000000D+02  0.2360620750D+00
  0.2142000000D+02  0.4434347595D+00
  0.7950000000D+01  0.3585036736D+00
  0.8815000000D+00 -0.8084577247D-02
 s    8  1.00
  0.1950000000D+05 -0.1995911530D-03
  0.2923000000D+04 -0.1555787449D-02
  0.6645000000D+03 -0.8046764688D-02
  0.1875000000D+03 -0.3255894654D-01
  0.6062000000D+02 -0.1017658994D+00
  0.2142000000D+02 -0.2388440797D+00
  0.7950000000D+01 -0.3015737026D+00
  0.8815000000D+00  0.1032147265D+01
 s    1  1.00
  0.2257000000D+01  0.1000000000D+01
 s    1  1.00
  0.3041000000D+00  0.1000000000D+01
 p    3  1.00
  0.4388000000D+02  0.4190462069D-01
  0.9926000000D+01  0.2626978417D+00
  0.2930000000D+01  0.7977593735D+00
 p    1  1.00
  0.9132000000D+00  0.1000000000D+01
 p    1  1.00
  0.2672000000D+00  0.1000000000D+01
 d    1  1.00
  0.3107000000D+01  0.1000000000D+01
 d    1  1.00
  0.8550000000D+00  0.1000000000D+01
 f    1  1.00
  0.1917000000D+01  0.1000000000D+01
 
 
[MO]
 Sym=      1.1
 Ene=     -26.4233
 Spin= Alpha
 Occup=    2.000000
1 0.68703500838124
2 -0.006782534679942
3 0.032287377807251
4 -0.001400566861563
5 0.000000000000000
6 -0.000000000000000
7 -0.000811546615704
8 -0.000000000000004
9 -0.000000000000001
10 -0.000163385055516
11 0.000000000000001
12 -0.000000000000000
13 -0.000043726231582
14 0.001542922804125
15 0.001542922804125
16 0.001323449269451
17 0.000000000000000
18 0.000000000000000
19 -0.000000000000000
20 0.002735565532610
21 0.002735565532610
22 0.002629567312467
23 0.000000000000000
24 0.000000000000000
25 0.000000000000000
26 0.000000000000002
27 0.000000000000001
28 0.000178481722084
29 0.000000000000001
30 0.000000000000000
31 0.000182946702065
32 0.000000000000001
33 0.000000000000000
34 0.000182946702065
35 -0.000000000000000
36 0.68703500866056
37 -0.006782534682736
38 0.032287377820429
39 -0.001400566862725
40 0.000000000000000
41 0.000000000000000
42 0.000811546616073
43 0.000000000000001
44 -0.000000000000002
45 0.000163385055280
46 -0.000000000000000
47 0.000000000000001
48 0.000043726231346
49 0.001542922804772
50 0.001542922804773
51 0.001323449270068
52 -0.000000000000000
53 0.000000000000000
54 -0.000000000000000
55 0.002735565533887
56 0.002735565533886
57 0.002629567313415
58 -0.000000000000000
59 0.000000000000000
60 0.000000000000000
61 -0.000000000000000
62 0.000000000000001
63 -0.000178481722149
64 -0.000000000000000
65 0.000000000000000
66 -0.000182946702036
67 -0.000000000000000
68 0.000000000000001
69 -0.000182946702037
70 0.000000000000000
 Sym=      2.1
 Ene=     -26.4230
 Spin= Alpha
 Occup=    2.000000
1 0.68691188368939
2 -0.007122589918929
3 0.032473195408436
4 -0.002875444314897
5 -0.000000000000001
6 0.000000000000000
7 -0.000912551121549
8 0.000000000000006
9 -0.000000000000000
10 0.000614633930786
11 -0.000000000000002
12 0.000000000000000
13 0.000555100473905
14 0.001642777142255
15 0.001642777142255
16 0.001566665542277
17 0.000000000000000
18 -0.000000000000000
19 0.000000000000000
20 0.003208317640734
21 0.003208317640734
22 0.002403863900002
23 0.000000000000000
24 0.000000000000000
25 0.000000000000000
26 -0.000000000000003
27 0.000000000000000
28 0.000144171602835
29 -0.000000000000002
30 -0.000000000000000
31 -0.000079312048345
32 -0.000000000000001
33 -0.000000000000000
34 -0.000079312048345
35 0.000000000000000
36 -0.68691188341016
37 0.007122589915991
38 -0.032473195395277
39 0.002875444314281
40 -0.000000000000000
41 -0.000000000000000
42 -0.000912551121223
43 -0.000000000000001
44 0.000000000000002
45 0.000614633930867
46 0.000000000000001
47 -0.000000000000000
48 0.000555100473919
49 -0.001642777141583
50 -0.001642777141584
51 -0.001566665541696
52 0.000000000000000
53 0.000000000000000
54 0.000000000000000
55 -0.003208317639565
56 -0.003208317639564
57 -0.002403863898879
58 -0.000000000000000
59 0.000000000000000
60 0.000000000000000
61 0.000000000000001
62 -0.000000000000001
63 0.000144171602755
64 0.000000000000000
65 -0.000000000000000
66 -0.000079312048423
67 0.000000000000000
68 -0.000000000000001
69 -0.000079312048423
70 0.000000000000000
 Sym=      3.1
 Ene=      -1.7984
 Spin= Alpha
 Occup=    2.000000
1 -0.002351059513928
2 0.38545474363903
3 0.11459038431149
4 0.19911936699561
5 -0.000000000000000
6 0.000000000000000
7 -0.040065773046403
8 0.000000000000002
9 -0.000000000000001
10 -0.064933095594324
11 -0.000000000000001
12 -0.000000000000000
13 -0.013542985776508
14 -0.000798696232030
15 -0.000798696232029
16 0.004002496030177
17 0.000000000000000
18 -0.000000000000000
19 -0.000000000000000
20 -0.000144064994191
21 -0.000144064994192
22 0.019241431183365
23 0.000000000000000
24 0.000000000000000
25 -0.000000000000000
26 -0.000000000000001
27 0.000000000000001
28 -0.002601726368814
29 -0.000000000000000
30 0.000000000000000
31 0.002539299200786
32 -0.000000000000000
33 0.000000000000000
34 0.002539299200786
35 0.000000000000000
36 -0.002351059513896
37 0.38545474363913
38 0.11459038431150
39 0.19911936699558
40 -0.000000000000000
41 0.000000000000000
42 0.040065773046397
43 0.000000000000000
44 0.000000000000000
45 0.064933095594331
46 0.000000000000000
47 -0.000000000000000
48 0.013542985776468
49 -0.000798696232044
50 -0.000798696232044
51 0.004002496030166
52 0.000000000000000
53 -0.000000000000000
54 0.000000000000000
55 -0.000144064994195
56 -0.000144064994194
57 0.019241431183347
58 -0.000000000000000
59 -0.000000000000000
60 0.000000000000000
61 -0.000000000000000
62 -0.000000000000000
63 0.002601726368807
64 -0.000000000000000
65 -0.000000000000000
66 -0.002539299200789
67 -0.000000000000000
68 -0.000000000000000
69 -0.002539299200789
70 -0.000000000000000
 Sym=      4.1
 Ene=      -1.4797
 Spin= Alpha
 Occup=    2.000000
1 -0.000175469351567
2 0.42260266021402
3 0.12776344439111
4 0.28858893675886
5 -0.000000000000000
6 0.000000000000000
7 0.043157382848892
8 -0.000000000000000
9 -0.000000000000001
10 0.042235528488675
11 -0.000000000000000
12 0.000000000000000
13 0.016122795651521
14 0.002335237981446
15 0.002335237981446
16 -0.001665934115968
17 -0.000000000000000
18 -0.000000000000000
19 0.000000000000000
20 0.004902657684400
21 0.004902657684401
22 -0.002636462633075
23 0.000000000000000
24 0.000000000000000
25 0.000000000000000
26 -0.000000000000000
27 0.000000000000001
28 0.003103067885680
29 -0.000000000000000
30 0.000000000000000
31 0.000324395172608
32 -0.000000000000000
33 0.000000000000000
34 0.000324395172608
35 0.000000000000000
36 0.000175469351511
37 -0.42260266021411
38 -0.12776344439108
39 -0.28858893675885
40 -0.000000000000000
41 0.000000000000001
42 0.043157382848898
43 -0.000000000000001
44 0.000000000000000
45 0.042235528488681
46 -0.000000000000000
47 0.000000000000000
48 0.016122795651525
49 -0.002335237981422
50 -0.002335237981422
51 0.001665934115992
52 -0.000000000000000
53 -0.000000000000000
54 -0.000000000000000
55 -0.004902657684374
56 -0.004902657684374
57 0.002636462633103
58 -0.000000000000000
59 0.000000000000000
60 -0.000000000000000
61 0.000000000000000
62 0.000000000000000
63 0.003103067885681
64 0.000000000000000
65 0.000000000000000
66 0.000324395172608
67 0.000000000000000
68 0.000000000000000
69 0.000324395172608
70 -0.000000000000000
 Sym=      5.1
 Ene=      -0.8233
 Spin= Alpha
 Occup=    2.000000
1 -0.000000000000002
2 -0.000000000000002
3 0.000000000000003
4 -0.000000000000010
5 -0.26308115491577
6 -0.056385814247820
7 0.000000000000001
8 -0.32742491133838
9 -0.070176521145144
10 0.000000000000006
11 -0.20232990741409
12 -0.043365084739275
13 -0.000000000000000
14 0.000000000000001
15 0.000000000000001
16 0.000000000000001
17 0.000000000000000
18 0.003215390286602
19 0.000689150081816
20 0.000000000000004
21 0.000000000000004
22 0.000000000000003
23 -0.000000000000000
24 0.016186159427669
25 0.003469156805117
26 0.003975508346530
27 0.000852065117475
28 -0.000000000000001
29 0.001777901377288
30 0.000381055103863
31 -0.000000000000000
32 -0.005106001326386
33 -0.001094362089260
34 -0.000000000000000
35 0.000000000000000
36 -0.000000000000000
37 -0.000000000000001
38 -0.000000000000000
39 0.000000000000004
40 -0.26308115491582
41 -0.056385814247830
42 -0.000000000000002
43 -0.32742491133848
44 -0.070176521145157
45 -0.000000000000001
46 -0.20232990741414
47 -0.043365084739289
48 -0.000000000000001
49 0.000000000000000
50 0.000000000000000
51 -0.000000000000000
52 0.000000000000000
53 -0.003215390286602
54 -0.000689150081817
55 -0.000000000000000
56 -0.000000000000000
57 -0.000000000000000
58 -0.000000000000000
59 -0.016186159427670
60 -0.003469156805117
61 0.003975508346548
62 0.000852065117475
63 -0.000000000000001
64 0.001777901377296
65 0.000381055103863
66 -0.000000000000000
67 -0.005106001326381
68 -0.001094362089260
69 -0.000000000000000
70 -0.000000000000000
 Sym=      6.1
 Ene=      -0.8233
 Spin= Alpha
 Occup=    2.000000
1 0.000000000000000
2 0.000000000000001
3 -0.000000000000001
4 0.000000000000003
5 -0.056385814247820
6 0.26308115491577
7 0.000000000000002
8 -0.070176521145139
9 0.32742491133840
10 0.000000000000007
11 -0.043365084739277
12 0.20232990741408
13 -0.000000000000001
14 -0.000000000000000
15 -0.000000000000000
16 -0.000000000000000
17 -0.000000000000000
18 0.000689150081816
19 -0.003215390286601
20 -0.000000000000001
21 -0.000000000000001
22 -0.000000000000001
23 -0.000000000000000
24 0.003469156805117
25 -0.016186159427670
26 0.000852065117472
27 -0.003975508346540
28 -0.000000000000001
29 0.000381055103862
30 -0.001777901377292
31 -0.000000000000001
32 -0.001094362089261
33 0.005106001326383
34 -0.000000000000001
35 -0.000000000000000
36 -0.000000000000001
37 -0.000000000000001
38 0.000000000000001
39 0.000000000000000
40 -0.056385814247830
41 0.26308115491583
42 -0.000000000000002
43 -0.070176521145161
44 0.32742491133846
45 0.000000000000001
46 -0.043365084739288
47 0.20232990741415
48 -0.000000000000002
49 0.000000000000000
50 0.000000000000000
51 0.000000000000000
52 -0.000000000000000
53 -0.000689150081816
54 0.003215390286602
55 0.000000000000001
56 0.000000000000001
57 0.000000000000001
58 -0.000000000000000
59 -0.003469156805118
60 0.016186159427670
61 0.000852065117476
62 -0.003975508346540
63 -0.000000000000002
64 0.000381055103864
65 -0.001777901377292
66 -0.000000000000001
67 -0.001094362089260
68 0.005106001326384
69 -0.000000000000001
70 0.000000000000000
 Sym=      7.1
 Ene=      -0.7739
 Spin= Alpha
 Occup=    2.000000
1 0.002994455715124
2 0.10552989885050
3 0.023124207598430
4 0.17007120120247
5 0.000000000000002
6 -0.000000000000001
7 0.24960464597069
8 0.000000000000003
9 -0.000000000000003
10 0.33879179947324
11 0.000000000000002
12 -0.000000000000000
13 0.19149213255066
14 0.001679389489110
15 0.001679389489110
16 -0.008559000053921
17 -0.000000000000000
18 0.000000000000000
19 0.000000000000000
20 -0.003894954734036
21 -0.003894954734036
22 -0.044826583032220
23 0.000000000000000
24 -0.000000000000000
25 0.000000000000000
26 -0.000000000000000
27 0.000000000000000
28 0.001656235891021
29 -0.000000000000000
30 0.000000000000000
31 -0.004827217385296
32 0.000000000000000
33 0.000000000000000
34 -0.004827217385296
35 -0.000000000000000
36 0.002994455715158
37 0.10552989885057
38 0.023124207598418
39 0.17007120120243
40 0.000000000000002
41 -0.000000000000002
42 -0.24960464597068
43 0.000000000000003
44 -0.000000000000001
45 -0.33879179947328
46 0.000000000000002
47 -0.000000000000002
48 -0.19149213255068
49 0.001679389489098
50 0.001679389489098
51 -0.008559000053932
52 -0.000000000000000
53 0.000000000000000
54 -0.000000000000000
55 -0.003894954734042
56 -0.003894954734042
57 -0.044826583032240
58 0.000000000000000
59 0.000000000000000
60 -0.000000000000000
61 0.000000000000000
62 -0.000000000000000
63 -0.001656235891001
64 0.000000000000000
65 -0.000000000000000
66 0.004827217385306
67 0.000000000000000
68 -0.000000000000000
69 0.004827217385306
70 0.000000000000000
 Sym=      8.1
 Ene=      -0.6518
 Spin= Alpha
 Occup=    2.000000
1 0.000000000000001
2 0.000000000000002
3 -0.000000000000001
4 0.000000000000005
5 0.040777198628337
6 0.29507850715416
7 0.000000000000001
8 0.049193990060610
9 0.35598544373656
10 -0.000000000000003
11 0.036703688024419
12 0.26560111615346
13 -0.000000000000000
14 -0.000000000000001
15 -0.000000000000001
16 -0.000000000000001
17 -0.000000000000000
18 0.000005509672032
19 0.000039869972753
20 -0.000000000000002
21 -0.000000000000002
22 -0.000000000000001
23 -0.000000000000001
24 0.000254536585905
25 0.001841918481689
26 0.000203071219109
27 0.001469496537171
28 0.000000000000002
29 0.000090816208012
30 0.000657178815284
31 0.000000000000001
32 0.000283149442858
33 0.002048971427911
34 0.000000000000001
35 -0.000000000000000
36 0.000000000000001
37 0.000000000000003
38 -0.000000000000000
39 -0.000000000000002
40 -0.040777198628329
41 -0.29507850715410
42 0.000000000000001
43 -0.049193990060608
44 -0.35598544373648
45 0.000000000000001
46 -0.036703688024415
47 -0.26560111615343
48 -0.000000000000001
49 -0.000000000000001
50 -0.000000000000001
51 -0.000000000000001
52 0.000000000000000
53 0.000005509672032
54 0.000039869972753
55 -0.000000000000000
56 -0.000000000000001
57 -0.000000000000001
58 0.000000000000000
59 0.000254536585905
60 0.001841918481690
61 -0.000203071219105
62 -0.001469496537174
63 -0.000000000000000
64 -0.000090816208010
65 -0.000657178815285
66 0.000000000000000
67 -0.000283149442856
68 -0.002048971427913
69 -0.000000000000000
70 0.000000000000000
 Sym=      9.1
 Ene=      -0.6518
 Spin= Alpha
 Occup=    2.000000
1 0.000000000000002
2 0.000000000000004
3 -0.000000000000001
4 0.000000000000006
5 0.29507850715416
6 -0.040777198628337
7 -0.000000000000001
8 0.35598544373654
9 -0.049193990060615
10 0.000000000000002
11 0.26560111615346
12 -0.036703688024419
13 -0.000000000000004
14 -0.000000000000001
15 -0.000000000000001
16 -0.000000000000001
17 0.000000000000000
18 0.000039869972753
19 -0.000005509672033
20 -0.000000000000003
21 -0.000000000000002
22 -0.000000000000002
23 -0.000000000000000
24 0.001841918481689
25 -0.000254536585905
26 0.001469496537182
27 -0.000203071219106
28 -0.000000000000001
29 0.000657178815288
30 -0.000090816208010
31 -0.000000000000000
32 0.002048971427916
33 -0.000283149442857
34 -0.000000000000001
35 0.000000000000000
36 0.000000000000001
37 0.000000000000003
38 -0.000000000000000
39 -0.000000000000005
40 -0.29507850715410
41 0.040777198628330
42 -0.000000000000001
43 -0.35598544373650
44 0.049193990060602
45 -0.000000000000000
46 -0.26560111615342
47 0.036703688024416
48 -0.000000000000003
49 -0.000000000000001
50 -0.000000000000001
51 -0.000000000000001
52 0.000000000000000
53 0.000039869972753
54 -0.000005509672033
55 -0.000000000000000
56 -0.000000000000000
57 -0.000000000000000
58 0.000000000000000
59 0.001841918481691
60 -0.000254536585905
61 -0.001469496537165
62 0.000203071219107
63 -0.000000000000000
64 -0.000657178815281
65 0.000090816208011
66 0.000000000000000
67 -0.002048971427909
68 0.000283149442857
69 -0.000000000000000
70 -0.000000000000000
 Sym=     10.1
 Ene=       0.1458
 Spin= Alpha
 Occup=    0.000000
1 0.003339627738643
2 -0.14150318266505
3 -0.050366302690528
4 -0.42081033057834
5 0.000000000000001
6 -0.000000000000001
7 0.28909120023565
8 0.000000000000001
9 -0.000000000000001
10 0.29492319456822
11 0.000000000000001
12 -0.000000000000001
13 0.64075453634772
14 -0.006019464423582
15 -0.006019464423582
16 0.003684238193975
17 -0.000000000000000
18 0.000000000000000
19 0.000000000000000
20 -0.008021079960211
21 -0.008021079960208
22 0.003954193765857
23 0.000000000000000
24 0.000000000000000
25 0.000000000000000
26 0.000000000000000
27 -0.000000000000000
28 0.022730612406484
29 0.000000000000000
30 -0.000000000000000
31 0.008984110080362
32 0.000000000000000
33 -0.000000000000000
34 0.008984110080362
35 -0.000000000000000
36 -0.003339627738757
37 0.14150318266483
38 0.050366302690628
39 0.42081033057813
40 -0.000000000000001
41 0.000000000000000
42 0.28909120023565
43 -0.000000000000001
44 0.000000000000000
45 0.29492319456836
46 -0.000000000000001
47 0.000000000000001
48 0.64075453634764
49 0.006019464423635
50 0.006019464423636
51 -0.003684238193923
52 0.000000000000000
53 -0.000000000000000
54 -0.000000000000000
55 0.008021079960350
56 0.008021079960353
57 -0.003954193765729
58 0.000000000000000
59 -0.000000000000000
60 -0.000000000000000
61 -0.000000000000000
62 0.000000000000000
63 0.022730612406435
64 -0.000000000000000
65 0.000000000000000
66 0.008984110080344
67 -0.000000000000000
68 0.000000000000000
69 0.008984110080345
70 0.000000000000000
 Sym=     11.1
 Ene=       0.6838
 Spin= Alpha
 Occup=    0.000000
1 0.036391101627639
2 -0.11860268101925
3 -0.55248793211278
4 1.98295074476671
5 -0.000000000000001
6 0.000000000000000
7 -0.029054044724130
8 -0.000000000000003
9 0.000000000000004
10 -0.14898932844012
11 0.000000000000002
12 -0.000000000000004
13 0.16811742967539
14 -0.089755981661941
15 -0.089755981661936
16 -0.093288157849101
17 0.000000000000000
18 -0.000000000000000
19 -0.000000000000000
20 -0.63277215384468
21 -0.63277215384469
22 -0.65621808199099
23 -0.000000000000000
24 0.000000000000000
25 -0.000000000000000
26 0.000000000000001
27 -0.000000000000001
28 0.028479600439282
29 0.000000000000000
30 -0.000000000000000
31 0.019263096682001
32 0.000000000000000
33 -0.000000000000000
34 0.019263096682001
35 0.000000000000000
36 0.036391101627277
37 -0.11860268101992
38 -0.55248793211209
39 1.98295074476396
40 -0.000000000000001
41 0.000000000000001
42 0.029054044724031
43 -0.000000000000003
44 0.000000000000006
45 0.14898932843970
46 0.000000000000002
47 -0.000000000000005
48 -0.16811742967529
49 -0.089755981661708
50 -0.089755981661708
51 -0.093288157848866
52 0.000000000000000
53 -0.000000000000000
54 -0.000000000000000
55 -0.63277215384374
56 -0.63277215384373
57 -0.65621808198997
58 0.000000000000000
59 0.000000000000000
60 0.000000000000000
61 0.000000000000001
62 -0.000000000000002
63 -0.028479600439184
64 0.000000000000000
65 -0.000000000000001
66 -0.019263096681969
67 0.000000000000000
68 -0.000000000000001
69 -0.019263096681969
70 -0.000000000000000
 Sym=     12.1
 Ene=       0.7787
 Spin= Alpha
 Occup=    0.000000
1 0.057189410054502
2 0.022255140644336
3 -0.24911562175120
4 0.44564899706854
5 0.000000000000001
6 -0.000000000000001
7 -0.13304459899055
8 0.000000000000021
9 -0.000000000000006
10 -0.73491893028908
11 -0.000000000000020
12 0.000000000000005
13 1.07300430468807
14 -0.056686757930849
15 -0.056686757930846
16 -0.039458265173487
17 0.000000000000000
18 -0.000000000000000
19 -0.000000000000000
20 -0.26424242593776
21 -0.26424242593777
22 -0.39773504441893
23 -0.000000000000000
24 -0.000000000000000
25 0.000000000000000
26 -0.000000000000005
27 0.000000000000001
28 0.15328336772907
29 -0.000000000000002
30 0.000000000000001
31 0.063173581575027
32 -0.000000000000002
33 0.000000000000001
34 0.063173581575027
35 0.000000000000000
36 -0.057189410054459
37 -0.022255140644065
38 0.24911562175161
39 -0.44564899707010
40 0.000000000000001
41 -0.000000000000000
42 -0.13304459899056
43 0.000000000000012
44 -0.000000000000003
45 -0.73491893028944
46 -0.000000000000009
47 0.000000000000002
48 1.07300430468836
49 0.056686757930891
50 0.056686757930891
51 0.039458265173527
52 -0.000000000000000
53 -0.000000000000000
54 0.000000000000000
55 0.26424242593818
56 0.26424242593818
57 0.39773504441940
58 0.000000000000000
59 0.000000000000000
60 -0.000000000000000
61 -0.000000000000003
62 0.000000000000001
63 0.15328336772919
64 -0.000000000000001
65 0.000000000000000
66 0.063173581575078
67 -0.000000000000001
68 0.000000000000000
69 0.063173581575079
70 0.000000000000000
 Sym=     13.1
 Ene=       0.8139
 Spin= Alpha
 Occup=    0.000000
1 0.000000000000002
2 0.000000000000004
3 -0.000000000000004
4 0.000000000000007
5 -0.093853263078620
6 0.023124565035892
7 -0.000000000000002
8 -0.96663863844075
9 0.23817070741698
10 -0.000000000000008
11 0.78260560795377